# vtk DataFile Version 3.0
2D CFD data
ASCII
DATASET STRUCTURED_GRID
DIMENSIONS 300 5 1
POINTS 1500 float
0.00328904 0.05 0.0
0.00328904 0.15 0.0
0.00328904 0.25 0.0
0.00328904 0.35 0.0
0.00328904 0.45 0.0
0.00986711 0.05 0.0
0.00986711 0.15 0.0
0.00986711 0.25 0.0
0.00986711 0.35 0.0
0.00986711 0.45 0.0
0.0164452 0.05 0.0
0.0164452 0.15 0.0
0.0164452 0.25 0.0
0.0164452 0.35 0.0
0.0164452 0.45 0.0
0.0230233 0.05 0.0
0.0230233 0.15 0.0
0.0230233 0.25 0.0
0.0230233 0.35 0.0
0.0230233 0.45 0.0
0.0296013 0.05 0.0
0.0296013 0.15 0.0
0.0296013 0.25 0.0
0.0296013 0.35 0.0
0.0296013 0.45 0.0
0.0361794 0.05 0.0
0.0361794 0.15 0.0
0.0361794 0.25 0.0
0.0361794 0.35 0.0
0.0361794 0.45 0.0
0.0427575 0.05 0.0
0.0427575 0.15 0.0
0.0427575 0.25 0.0
0.0427575 0.35 0.0
0.0427575 0.45 0.0
0.0493355 0.05 0.0
0.0493355 0.15 0.0
0.0493355 0.25 0.0
0.0493355 0.35 0.0
0.0493355 0.45 0.0
0.0559136 0.05 0.0
0.0559136 0.15 0.0
0.0559136 0.25 0.0
0.0559136 0.35 0.0
0.0559136 0.45 0.0
0.0624917 0.05 0.0
0.0624917 0.15 0.0
0.0624917 0.25 0.0
0.0624917 0.35 0.0
0.0624917 0.45 0.0
0.0690698 0.05 0.0
0.0690698 0.15 0.0
0.0690698 0.25 0.0
0.0690698 0.35 0.0
0.0690698 0.45 0.0
0.0756478 0.05 0.0
0.0756478 0.15 0.0
0.0756478 0.25 0.0
0.0756478 0.35 0.0
0.0756478 0.45 0.0
0.0822259 0.05 0.0
0.0822259 0.15 0.0
0.0822259 0.25 0.0
0.0822259 0.35 0.0
0.0822259 0.45 0.0
0.088804 0.05 0.0
0.088804 0.15 0.0
0.088804 0.25 0.0
0.088804 0.35 0.0
0.088804 0.45 0.0
0.0953821 0.05 0.0
0.0953821 0.15 0.0
0.0953821 0.25 0.0
0.0953821 0.35 0.0
0.0953821 0.45 0.0
0.10196 0.05 0.0
0.10196 0.15 0.0
0.10196 0.25 0.0
0.10196 0.35 0.0
0.10196 0.45 0.0
0.108538 0.05 0.0
0.108538 0.15 0.0
0.108538 0.25 0.0
0.108538 0.35 0.0
0.108538 0.45 0.0
0.115116 0.05 0.0
0.115116 0.15 0.0
0.115116 0.25 0.0
0.115116 0.35 0.0
0.115116 0.45 0.0
0.121694 0.05 0.0
0.121694 0.15 0.0
0.121694 0.25 0.0
0.121694 0.35 0.0
0.121694 0.45 0.0
0.128272 0.05 0.0
0.128272 0.15 0.0
0.128272 0.25 0.0
0.128272 0.35 0.0
0.128272 0.45 0.0
0.13485 0.05 0.0
0.13485 0.15 0.0
0.13485 0.25 0.0
0.13485 0.35 0.0
0.13485 0.45 0.0
0.141429 0.05 0.0
0.141429 0.15 0.0
0.141429 0.25 0.0
0.141429 0.35 0.0
0.141429 0.45 0.0
0.148007 0.05 0.0
0.148007 0.15 0.0
0.148007 0.25 0.0
0.148007 0.35 0.0
0.148007 0.45 0.0
0.154585 0.05 0.0
0.154585 0.15 0.0
0.154585 0.25 0.0
0.154585 0.35 0.0
0.154585 0.45 0.0
0.161163 0.05 0.0
0.161163 0.15 0.0
0.161163 0.25 0.0
0.161163 0.35 0.0
0.161163 0.45 0.0
0.167741 0.05 0.0
0.167741 0.15 0.0
0.167741 0.25 0.0
0.167741 0.35 0.0
0.167741 0.45 0.0
0.174319 0.05 0.0
0.174319 0.15 0.0
0.174319 0.25 0.0
0.174319 0.35 0.0
0.174319 0.45 0.0
0.180897 0.05 0.0
0.180897 0.15 0.0
0.180897 0.25 0.0
0.180897 0.35 0.0
0.180897 0.45 0.0
0.187475 0.05 0.0
0.187475 0.15 0.0
0.187475 0.25 0.0
0.187475 0.35 0.0
0.187475 0.45 0.0
0.194053 0.05 0.0
0.194053 0.15 0.0
0.194053 0.25 0.0
0.194053 0.35 0.0
0.194053 0.45 0.0
0.200631 0.05 0.0
0.200631 0.15 0.0
0.200631 0.25 0.0
0.200631 0.35 0.0
0.200631 0.45 0.0
0.207209 0.05 0.0
0.207209 0.15 0.0
0.207209 0.25 0.0
0.207209 0.35 0.0
0.207209 0.45 0.0
0.213787 0.05 0.0
0.213787 0.15 0.0
0.213787 0.25 0.0
0.213787 0.35 0.0
0.213787 0.45 0.0
0.220365 0.05 0.0
0.220365 0.15 0.0
0.220365 0.25 0.0
0.220365 0.35 0.0
0.220365 0.45 0.0
0.226944 0.05 0.0
0.226944 0.15 0.0
0.226944 0.25 0.0
0.226944 0.35 0.0
0.226944 0.45 0.0
0.233522 0.05 0.0
0.233522 0.15 0.0
0.233522 0.25 0.0
0.233522 0.35 0.0
0.233522 0.45 0.0
0.2401 0.05 0.0
0.2401 0.15 0.0
0.2401 0.25 0.0
0.2401 0.35 0.0
0.2401 0.45 0.0
0.246678 0.05 0.0
0.246678 0.15 0.0
0.246678 0.25 0.0
0.246678 0.35 0.0
0.246678 0.45 0.0
0.253256 0.05 0.0
0.253256 0.15 0.0
0.253256 0.25 0.0
0.253256 0.35 0.0
0.253256 0.45 0.0
0.259834 0.05 0.0
0.259834 0.15 0.0
0.259834 0.25 0.0
0.259834 0.35 0.0
0.259834 0.45 0.0
0.266412 0.05 0.0
0.266412 0.15 0.0
0.266412 0.25 0.0
0.266412 0.35 0.0
0.266412 0.45 0.0
0.27299 0.05 0.0
0.27299 0.15 0.0
0.27299 0.25 0.0
0.27299 0.35 0.0
0.27299 0.45 0.0
0.279568 0.05 0.0
0.279568 0.15 0.0
0.279568 0.25 0.0
0.279568 0.35 0.0
0.279568 0.45 0.0
0.286146 0.05 0.0
0.286146 0.15 0.0
0.286146 0.25 0.0
0.286146 0.35 0.0
0.286146 0.45 0.0
0.292724 0.05 0.0
0.292724 0.15 0.0
0.292724 0.25 0.0
0.292724 0.35 0.0
0.292724 0.45 0.0
0.299302 0.05 0.0
0.299302 0.15 0.0
0.299302 0.25 0.0
0.299302 0.35 0.0
0.299302 0.45 0.0
0.30588 0.05 0.0
0.30588 0.15 0.0
0.30588 0.25 0.0
0.30588 0.35 0.0
0.30588 0.45 0.0
0.312458 0.05 0.0
0.312458 0.15 0.0
0.312458 0.25 0.0
0.312458 0.35 0.0
0.312458 0.45 0.0
0.319037 0.05 0.0
0.319037 0.15 0.0
0.319037 0.25 0.0
0.319037 0.35 0.0
0.319037 0.45 0.0
0.325615 0.05 0.0
0.325615 0.15 0.0
0.325615 0.25 0.0
0.325615 0.35 0.0
0.325615 0.45 0.0
0.332193 0.05 0.0
0.332193 0.15 0.0
0.332193 0.25 0.0
0.332193 0.35 0.0
0.332193 0.45 0.0
0.338771 0.05 0.0
0.338771 0.15 0.0
0.338771 0.25 0.0
0.338771 0.35 0.0
0.338771 0.45 0.0
0.345349 0.05 0.0
0.345349 0.15 0.0
0.345349 0.25 0.0
0.345349 0.35 0.0
0.345349 0.45 0.0
0.351927 0.05 0.0
0.351927 0.15 0.0
0.351927 0.25 0.0
0.351927 0.35 0.0
0.351927 0.45 0.0
0.358505 0.05 0.0
0.358505 0.15 0.0
0.358505 0.25 0.0
0.358505 0.35 0.0
0.358505 0.45 0.0
0.365083 0.05 0.0
0.365083 0.15 0.0
0.365083 0.25 0.0
0.365083 0.35 0.0
0.365083 0.45 0.0
0.371661 0.05 0.0
0.371661 0.15 0.0
0.371661 0.25 0.0
0.371661 0.35 0.0
0.371661 0.45 0.0
0.378239 0.05 0.0
0.378239 0.15 0.0
0.378239 0.25 0.0
0.378239 0.35 0.0
0.378239 0.45 0.0
0.384817 0.05 0.0
0.384817 0.15 0.0
0.384817 0.25 0.0
0.384817 0.35 0.0
0.384817 0.45 0.0
0.391395 0.05 0.0
0.391395 0.15 0.0
0.391395 0.25 0.0
0.391395 0.35 0.0
0.391395 0.45 0.0
0.397973 0.05 0.0
0.397973 0.15 0.0
0.397973 0.25 0.0
0.397973 0.35 0.0
0.397973 0.45 0.0
0.404551 0.05 0.0
0.404551 0.15 0.0
0.404551 0.25 0.0
0.404551 0.35 0.0
0.404551 0.45 0.0
0.41113 0.05 0.0
0.41113 0.15 0.0
0.41113 0.25 0.0
0.41113 0.35 0.0
0.41113 0.45 0.0
0.417708 0.05 0.0
0.417708 0.15 0.0
0.417708 0.25 0.0
0.417708 0.35 0.0
0.417708 0.45 0.0
0.424286 0.05 0.0
0.424286 0.15 0.0
0.424286 0.25 0.0
0.424286 0.35 0.0
0.424286 0.45 0.0
0.430864 0.05 0.0
0.430864 0.15 0.0
0.430864 0.25 0.0
0.430864 0.35 0.0
0.430864 0.45 0.0
0.437442 0.05 0.0
0.437442 0.15 0.0
0.437442 0.25 0.0
0.437442 0.35 0.0
0.437442 0.45 0.0
0.44402 0.05 0.0
0.44402 0.15 0.0
0.44402 0.25 0.0
0.44402 0.35 0.0
0.44402 0.45 0.0
0.450598 0.05 0.0
0.450598 0.15 0.0
0.450598 0.25 0.0
0.450598 0.35 0.0
0.450598 0.45 0.0
0.457176 0.05 0.0
0.457176 0.15 0.0
0.457176 0.25 0.0
0.457176 0.35 0.0
0.457176 0.45 0.0
0.463754 0.05 0.0
0.463754 0.15 0.0
0.463754 0.25 0.0
0.463754 0.35 0.0
0.463754 0.45 0.0
0.470332 0.05 0.0
0.470332 0.15 0.0
0.470332 0.25 0.0
0.470332 0.35 0.0
0.470332 0.45 0.0
0.47691 0.05 0.0
0.47691 0.15 0.0
0.47691 0.25 0.0
0.47691 0.35 0.0
0.47691 0.45 0.0
0.483488 0.05 0.0
0.483488 0.15 0.0
0.483488 0.25 0.0
0.483488 0.35 0.0
0.483488 0.45 0.0
0.490066 0.05 0.0
0.490066 0.15 0.0
0.490066 0.25 0.0
0.490066 0.35 0.0
0.490066 0.45 0.0
0.496645 0.05 0.0
0.496645 0.15 0.0
0.496645 0.25 0.0
0.496645 0.35 0.0
0.496645 0.45 0.0
0.503223 0.05 0.0
0.503223 0.15 0.0
0.503223 0.25 0.0
0.503223 0.35 0.0
0.503223 0.45 0.0
0.509801 0.05 0.0
0.509801 0.15 0.0
0.509801 0.25 0.0
0.509801 0.35 0.0
0.509801 0.45 0.0
0.516379 0.05 0.0
0.516379 0.15 0.0
0.516379 0.25 0.0
0.516379 0.35 0.0
0.516379 0.45 0.0
0.522957 0.05 0.0
0.522957 0.15 0.0
0.522957 0.25 0.0
0.522957 0.35 0.0
0.522957 0.45 0.0
0.529535 0.05 0.0
0.529535 0.15 0.0
0.529535 0.25 0.0
0.529535 0.35 0.0
0.529535 0.45 0.0
0.536113 0.05 0.0
0.536113 0.15 0.0
0.536113 0.25 0.0
0.536113 0.35 0.0
0.536113 0.45 0.0
0.542691 0.05 0.0
0.542691 0.15 0.0
0.542691 0.25 0.0
0.542691 0.35 0.0
0.542691 0.45 0.0
0.549269 0.05 0.0
0.549269 0.15 0.0
0.549269 0.25 0.0
0.549269 0.35 0.0
0.549269 0.45 0.0
0.555847 0.05 0.0
0.555847 0.15 0.0
0.555847 0.25 0.0
0.555847 0.35 0.0
0.555847 0.45 0.0
0.562425 0.05 0.0
0.562425 0.15 0.0
0.562425 0.25 0.0
0.562425 0.35 0.0
0.562425 0.45 0.0
0.569003 0.05 0.0
0.569003 0.15 0.0
0.569003 0.25 0.0
0.569003 0.35 0.0
0.569003 0.45 0.0
0.575581 0.05 0.0
0.575581 0.15 0.0
0.575581 0.25 0.0
0.575581 0.35 0.0
0.575581 0.45 0.0
0.582159 0.05 0.0
0.582159 0.15 0.0
0.582159 0.25 0.0
0.582159 0.35 0.0
0.582159 0.45 0.0
0.588738 0.05 0.0
0.588738 0.15 0.0
0.588738 0.25 0.0
0.588738 0.35 0.0
0.588738 0.45 0.0
0.595316 0.05 0.0
0.595316 0.15 0.0
0.595316 0.25 0.0
0.595316 0.35 0.0
0.595316 0.45 0.0
0.601894 0.05 0.0
0.601894 0.15 0.0
0.601894 0.25 0.0
0.601894 0.35 0.0
0.601894 0.45 0.0
0.608472 0.05 0.0
0.608472 0.15 0.0
0.608472 0.25 0.0
0.608472 0.35 0.0
0.608472 0.45 0.0
0.61505 0.05 0.0
0.61505 0.15 0.0
0.61505 0.25 0.0
0.61505 0.35 0.0
0.61505 0.45 0.0
0.621628 0.05 0.0
0.621628 0.15 0.0
0.621628 0.25 0.0
0.621628 0.35 0.0
0.621628 0.45 0.0
0.628206 0.05 0.0
0.628206 0.15 0.0
0.628206 0.25 0.0
0.628206 0.35 0.0
0.628206 0.45 0.0
0.634784 0.05 0.0
0.634784 0.15 0.0
0.634784 0.25 0.0
0.634784 0.35 0.0
0.634784 0.45 0.0
0.641362 0.05 0.0
0.641362 0.15 0.0
0.641362 0.25 0.0
0.641362 0.35 0.0
0.641362 0.45 0.0
0.64794 0.05 0.0
0.64794 0.15 0.0
0.64794 0.25 0.0
0.64794 0.35 0.0
0.64794 0.45 0.0
0.654518 0.05 0.0
0.654518 0.15 0.0
0.654518 0.25 0.0
0.654518 0.35 0.0
0.654518 0.45 0.0
0.658904 0.05 0.0
0.658904 0.15 0.0
0.658904 0.25 0.0
0.658904 0.35 0.0
0.658904 0.45 0.0
0.665482 0.05 0.0
0.665482 0.15 0.0
0.665482 0.25 0.0
0.665482 0.35 0.0
0.665482 0.45 0.0
0.674252 0.05 0.0
0.674252 0.15 0.0
0.674252 0.25 0.0
0.674252 0.35 0.0
0.674252 0.45 0.0
0.680831 0.05 0.0
0.680831 0.15 0.0
0.680831 0.25 0.0
0.680831 0.35 0.0
0.680831 0.45 0.0
0.687409 0.05 0.0
0.687409 0.15 0.0
0.687409 0.25 0.0
0.687409 0.35 0.0
0.687409 0.45 0.0
0.693987 0.05 0.0
0.693987 0.15 0.0
0.693987 0.25 0.0
0.693987 0.35 0.0
0.693987 0.45 0.0
0.700565 0.05 0.0
0.700565 0.15 0.0
0.700565 0.25 0.0
0.700565 0.35 0.0
0.700565 0.45 0.0
0.707143 0.05 0.0
0.707143 0.15 0.0
0.707143 0.25 0.0
0.707143 0.35 0.0
0.707143 0.45 0.0
0.713721 0.05 0.0
0.713721 0.15 0.0
0.713721 0.25 0.0
0.713721 0.35 0.0
0.713721 0.45 0.0
0.720299 0.05 0.0
0.720299 0.15 0.0
0.720299 0.25 0.0
[...]
POINT_DATA 1500
SCALARS density float
LOOKUP_TABLE default
1
1
1
1
1
1
1
1
1
1
1
1
1
1
1
1
1
1
1
1
1
1
1
1
1
1
1
1
1
1
1
1
1
1
1
1
1
1
1
1
1
1
1
1
1
1
1
1
1
1
1
1
1
1
1
1
1
1
1
1
1
1
1
1
1
1
1
1
1
1
1
1
1
1
1
1
1
1
1
1
1
1
1
1
1
1
1
1
1
1
1
1
1
1
1
1
1
1
1
1
1
1
1
1
1
1
1
1
1
1
1
1
1
1
1
1
1
1
1
1
1
1
1
1
1
1
1
1
1
1
1
1
1
1
1
1
1
1
1
1
1
1
1
1
1
1
1
1
1
1
1
1
1
1
1
1
1
1
1
1
1
1
1
1
1
1
1
1
1
1
1
1
1
1
1
1
1
1
1
1
1
1
1
1
1
1
1
1
1
1
1
1
1
1
1
1
1
1
1
1
1
1
1
1
1
1
1
1
1
1
1
1
1
1
1
1
1
1
1
1
1
1
1
1
1
1
1
1
1
1
1
1
1
1
1
1
1
1
1
1
1
1
1
1
1
1
1
1
1
1
1
1
1
1
1
1
1
1
1
1
1
1
1
1
1
1
1
1
1
1
1
1
1
1
1
1
1
1
1
1
1
1
1
1
1
1
1
1
1
1
1
1
1
1
1
0.999999
0.999999
0.999999
0.999999
0.999999
0.999999
0.999999
0.999999
0.999999
0.999999
0.999998
0.999998
0.999998
0.999998
0.999998
0.999997
0.999997
0.999997
0.999997
0.999996
0.999996
0.999995
0.999994
0.999994
0.999994
0.999993
0.999991
0.999991
0.999991
0.99999
0.999988
0.999986
0.999985
0.999985
0.999985
0.999981
0.999977
0.999976
0.999976
0.999976
0.99997
0.999965
0.999963
0.999963
0.999962
0.999953
0.999945
0.999943
0.999942
0.999941
0.999928
0.999917
0.999913
0.999912
0.999911
0.999892
0.999875
0.999869
0.999868
0.999866
0.999838
0.999814
0.999807
0.999805
0.999802
0.999762
0.999728
0.999718
0.999715
0.999711
0.999654
0.999608
0.999593
0.99959
0.999584
0.999504
0.999442
0.999422
0.999417
0.999409
0.999299
0.999216
0.999189
0.999183
0.999171
0.999023
0.998913
0.998878
0.998869
0.998854
0.998656
0.998514
0.998468
0.998456
0.998436
0.998176
0.997993
0.997935
0.99792
0.997893
0.997556
0.997326
0.997253
0.997234
0.997198
0.996768
0.996482
0.996391
0.996368
0.996321
0.99578
0.995431
0.995319
0.995291
0.995231
0.99456
0.994138
0.994004
0.993969
0.993894
0.993072
0.99257
0.99241
0.992369
0.992275
0.991283
0.990693
0.990506
0.990457
0.990343
0.989159
0.988475
0.988259
0.988201
0.988063
0.986669
0.985887
0.985639
0.985573
0.985408
0.983785
0.982901
0.982622
0.982547
0.982351
0.980484
0.979496
0.979184
0.9791
0.978871
0.976746
0.975654
0.975311
0.975216
0.974952
0.972558
0.971364
0.970989
0.970885
0.970582
0.967911
0.966619
0.966213
0.966099
0.965756
0.962802
0.961416
0.960982
0.960858
0.960473
0.957234
0.955761
0.9553
0.955167
0.954737
0.951214
0.949661
0.949176
0.949033
0.948559
0.944753
0.94313
0.942623
0.942471
0.941951
0.937868
0.936182
0.935657
0.935496
0.934929
0.930577
0.928837
0.928297
0.928127
0.927515
0.9229
0.921117
0.920564
0.920387
0.919728
0.914862
0.913044
0.912482
0.912297
0.911593
0.906448
0.904607
0.904042
0.903852
0.903108
0.903568
0.901717
0.901146
0.90095
0.900183
0.888782
0.886908
0.886334
0.886129
0.885295
0.879552
0.877679
0.877106
0.876896
0.876023
0.870085
0.86822
0.867653
0.867438
0.866527
0.860385
0.858537
0.857976
0.857757
0.85681
0.850491
0.848664
0.848112
0.847888
0.846909
0.840429
0.838629
0.838088
0.83786
0.83685
0.830222
0.828455
0.827926
0.827694
0.826656
0.819892
0.818161
0.817646
0.817411
0.816347
0.809457
0.807767
0.807267
0.807029
0.805941
0.798936
0.79729
0.796805
0.796565
0.795456
0.788344
0.786745
0.786277
0.786035
0.784908
0.777698
0.776149
0.775698
0.775453
0.77431
0.767012
0.765514
0.765081
0.764834
0.763678
0.756298
0.754853
0.754439
0.754191
0.753024
0.74557
0.74418
0.743784
0.743535
0.742359
0.734838
0.733504
0.733127
0.732877
0.731695
0.724113
0.722835
0.722478
0.722227
0.721041
0.713405
0.712184
0.711846
0.711594
0.710407
0.702722
0.701559
0.701239
0.700987
0.6998
0.692073
0.690967
0.690666
0.690414
0.689229
0.681465
0.680415
0.680134
0.679882
0.678701
0.670904
0.669912
0.669649
0.669398
0.668222
0.660398
0.659462
0.659217
0.658967
0.657799
0.649951
0.649072
0.648845
0.648596
0.647436
0.63957
0.638746
0.638537
0.638289
0.63714
0.629259
0.62849
0.628298
0.628051
0.626915
0.619022
0.618307
0.618133
0.617888
0.616765
0.608865
0.608203
0.608046
0.607802
0.606694
0.59879
0.598182
0.598041
0.597799
0.596706
0.588802
0.588245
0.588121
0.587881
0.586806
0.578904
0.578399
0.57829
0.578053
0.576995
0.5691
0.568644
0.568552
0.568316
0.567278
0.559392
0.558986
0.558909
0.558676
0.557658
0.549784
0.549427
0.549364
0.549135
0.548137
0.540279
0.53997
0.539922
0.539696
0.53872
0.530881
0.530619
0.530586
0.530363
0.529409
0.521592
0.521377
0.521359
0.52114
0.520208
0.512417
0.512248
0.512245
0.51203
0.511122
0.503361
0.503238
0.503251
0.50304
0.502156
0.494428
0.494353
0.494381
0.494175
0.493315
0.485627
0.485599
0.485644
0.485443
0.484609
0.476966
0.476988
0.477051
0.476857
0.476048
0.46846
0.468535
0.468618
0.468431
0.467648
0.460129
0.460262
0.46037
0.460192
0.459436
0.452005
0.452206
0.452345
0.452179
0.45145
0.444147
0.444432
0.444612
0.444462
0.443761
0.436656
0.437055
0.437295
0.437167
0.436498
0.429739
0.430302
0.430634
0.43054
0.429908
0.42382
0.424629
0.4251
0.425057
0.424475
0.419713
0.420836
0.421477
0.421504
0.420998
0.418301
0.419617
0.42035
0.420429
0.420023
0.418798
0.420033
0.420713
0.420801
0.420484
0.419283
0.420421
0.42104
0.421129
0.420885
0.419612
0.420671
0.421239
0.421331
0.421151
0.419848
0.42084
0.421364
0.421459
0.421337
0.420024
0.420957
0.421442
0.421539
0.42147
0.420157
0.421038
0.421488
0.421587
0.421564
0.420258
0.421092
0.421509
0.421609
0.421628
0.420332
0.421124
0.421511
0.421612
0.421668
0.420384
0.421138
0.421497
0.421599
0.421687
0.420418
0.421136
0.42147
0.421571
0.421688
0.420434
0.421119
0.42143
0.421531
0.421673
0.420434
0.421089
0.421378
0.421479
0.421642
0.420418
0.421046
0.421314
0.421414
0.421597
0.420386
0.420988
0.421238
0.421337
0.421535
0.420338
0.420916
0.421148
0.421246
0.421457
0.420271
0.420826
0.421041
0.421138
0.42136
0.420182
0.420714
0.420914
0.42101
0.421239
0.420065
0.420575
0.42076
0.420855
0.421088
0.41991
0.420396
0.420567
0.420661
0.420896
0.419704
0.420164
0.420322
0.420415
0.420647
0.419425
0.419855
0.42
0.420093
0.420318
0.419046
0.419439
0.419572
0.419665
0.419876
0.418526
0.418874
0.418995
0.419088
0.419279
0.417816
0.418105
0.418214
0.418308
0.41847
0.416852
0.417067
0.417163
0.417259
0.417381
0.415558
0.415681
0.415764
0.415863
0.415931
0.413849
0.413857
0.413927
0.414029
0.414029
0.411633
0.4115
0.411556
0.411664
0.41158
0.408814
0.408516
0.408558
0.408672
0.408488
0.405305
0.404816
0.404845
0.404967
0.404667
0.401031
0.40033
0.400345
0.400476
0.400049
0.39594
0.395011
0.395013
0.395153
0.394589
0.39001
0.388845
0.388834
0.388985
0.38828
0.383256
0.381856
0.381834
0.381995
0.381153
0.375733
0.374111
0.374079
0.374251
0.37328
0.367538
0.365718
0.365677
0.365858
0.364776
0.358803
0.35682
0.356773
0.356962
0.355792
0.349693
0.34759
0.347538
0.347734
0.346504
0.340392
0.338219
0.338165
0.338366
0.337105
0.331093
0.328904
0.328849
0.329052
0.327793
0.321986
0.319837
0.319783
0.319987
0.31876
0.313253
0.311195
0.311145
0.311348
0.310179
0.305054
0.303134
0.30309
0.303291
0.302201
0.29752
0.295776
0.29574
0.295937
0.294943
0.290747
0.289204
0.289177
0.28937
0.28848
0.284784
0.283456
0.283438
0.283626
0.282843
0.279638
0.278528
0.278519
0.278701
0.278023
0.276552
0.275588
0.275586
0.275765
0.275149
0.271721
0.271025
0.271032
0.271206
0.270713
0.268771
0.268262
0.26828
0.268451
0.268027
0.26642
0.266077
0.266104
0.266273
0.265911
0.264594
0.264393
0.264428
0.264596
0.264284
0.263209
0.263125
0.263168
0.263336
0.263063
0.262185
0.262196
0.262244
0.262414
0.262171
0.261449
0.261534
0.261587
0.261758
0.261538
0.260938
0.261076
0.261133
0.261307
0.261105
0.260595
0.260771
0.260829
0.261007
0.260819
0.260376
0.260576
0.260635
0.260817
0.260642
0.260246
0.260458
0.260517
0.260702
0.26054
0.260178
0.260392
0.26045
0.260639
0.260491
0.260151
0.260361
0.260416
0.260609
0.260478
0.26015
0.26035
0.260402
0.260598
0.260488
0.260164
0.26035
0.260398
0.260597
0.260511
0.260182
0.26035
0.260394
0.260595
0.260539
0.260193
0.260342
0.260381
0.260583
0.260564
0.260182
0.260312
0.260346
0.260549
0.260573
0.260132
0.260243
0.260273
0.260475
0.260552
0.260015
0.260113
0.260139
0.260339
0.260479
0.259795
0.259887
0.259911
0.260108
0.260322
0.259416
0.259515
0.259542
0.259734
0.260037
0.258797
0.258925
0.258958
0.259146
0.259556
0.257816
0.258009
0.258056
0.258238
0.258777
0.256294
0.256604
0.256676
0.256854
0.257553
0.253967
0.254473
0.254586
0.254762
0.255661
0.250459
0.251275
0.251451
0.251631
0.252783
0.245247
0.246531
0.246802
0.246992
0.248467
0.237655
0.239612
0.240014
0.240227
0.24211
0.226919
0.229772
0.23035
0.230599
0.232971
0.212443
0.216347
0.217131
0.217429
0.220329
0.194323
0.199195
0.200176
0.200525
0.203863
0.174034
0.179366
0.180454
0.180831
0.1843
0.15469
0.15954
0.160559
0.160912
0.163987
0.139916
0.14336
0.144116
0.144381
0.14655
0.131306
0.133156
0.133584
0.133738
0.134891
0.127395
0.128198
0.12839
0.128461
0.12894
0.125866
0.126179
0.126256
0.126285
0.126459
0.125307
0.125424
0.125453
0.125464
0.125523
0.125108
0.12515
0.125161
0.125165
0.125185
0.125038
0.125053
0.125057
0.125058
0.125065
0.125013
0.125019
0.12502
0.125021
0.125023
0.125005
0.125007
0.125007
0.125007
0.125008
0.125002
0.125002
0.125002
0.125003
0.125003
0.125001
0.125001
0.125001
0.125001
0.125001
0.125
0.125
0.125
0.125
0.125
0.125
0.125
0.125
0.125
0.125
0.125
0.125
0.125
0.125
0.125
0.125
0.125
0.125
0.125
0.125
0.125
0.125
0.125
0.125
0.125
0.125
0.125
0.125
0.125
0.125
0.125
0.125
0.125
0.125
0.125
0.125
0.125
0.125
0.125
0.125
0.125
0.125
0.125
0.125
0.125
0.125
0.125
0.125
0.125
0.125
0.125
0.125
0.125
0.125
0.125
0.125
0.125
0.125
0.125
0.125
0.125
0.125
0.125
0.125
0.125
0.125
0.125
0.125
0.125
0.125
0.125
0.125
0.125
0.125
0.125
0.125
0.125
0.125
0.125
0.125
0.125
0.125
0.125
0.125
0.125
0.125
0.125
0.125
0.125
0.125
0.125
0.125
0.125
0.125
0.125
0.125
0.125
0.125
0.125
0.125
0.125
0.125
0.125
0.125
0.125
0.125
0.125
0.125
0.125
0.125
0.125
0.125
0.125
0.125
0.125
0.125
0.125
0.125
0.125
0.125
0.125
0.125
0.125
0.125
0.125
0.125
0.125
0.125
0.125
0.125
0.125
0.125
0.125
0.125
0.125
0.125
0.125
0.125
0.125
0.125
0.125
0.125
0.125
0.125
0.125
0.125
0.125
0.125
0.125
0.125
0.125
0.125
0.125
0.125
0.125
0.125
0.125
0.125
0.125
0.125
0.125
0.125
0.125
0.125
0.125
0.125
0.125
0.125
0.125
0.125
0.125
0.125
0.125
0.125
0.125
0.125
0.125
0.125
0.125
0.125
0.125
0.125
0.125
0.125
0.125
0.125
0.125
0.125
0.125
0.125
0.125
0.125
0.125
0.125
0.125
0.125
0.125
0.125
0.125
0.125
0.125
0.125
0.125
0.125
0.125
0.125
0.125
0.125
0.125
0.125
0.125
0.125
0.125
0.125
0.125
0.125
0.125
0.125
0.125
0.125
0.125
0.125
0.125
0.125
0.125
0.125
0.125
0.125
0.125
0.125
0.125
0.125
0.125
0.125
0.125
0.125
0.125
0.125
0.125
0.125
0.125
0.125
0.125
0.125
0.125
0.125
0.125
0.125
0.125
0.125
0.125
0.125
0.125
0.125
0.125
0.125
0.125
0.125
0.125
0.125
0.125
0.125
0.125
0.125
0.125
0.125
0.125
0.125
0.125
0.125

SCALARS pressure float
LOOKUP_TABLE default
1
1
1
1
1
1
1
1
1
1
1
1
1
1
1
1
1
1
1
1
1
1
1
1
1
1
1
1
1
1
1
1
1
1
1
1
1
1
1
1
1
1
1
1
1
1
1
1
1
1
1
1
1
1
1
1
1
1
1
1
1
1
1
1
1
1
1
1
1
1
1
1
1
1
1
1
1
1
1
1
1
1
1
1
1
1
1
1
1
1
1
1
1
1
1
1
1
1
1
1
1
1
1
1
1
1
1
1
1
1
1
1
1
1
1
1
1
1
1
1
1
1
1
1
1
1
1
1
1
1
1
1
1
1
1
1
1
1
1
1
1
1
1
1
1
1
1
1
1
1
1
1
1
1
1
1
1
1
1
1
1
1
1
1
1
1
1
1
1
1
1
1
1
1
1
1
1
1
1
1
1
1
1
1
1
1
1
1
1
1
1
1
1
1
1
1
1
1
1
1
1
1
1
1
1
1
1
1
1
1
1
1
1
1
1
1
1
1
1
1
1
1
1
1
1
1
1
1
1
1
1
1
1
1
1
1
1
1
1
1
1
1
1
1
1
1
1
1
1
1
1
1
1
1
1
1
1
1
1
1
1
1
1
1
1
1
1
1
1
1
1
1
1
1
1
1
1
1
1
1
1
1
1
1
1
1
1
1
1
1
1
0.999999
0.999999
0.999999
0.999999
0.999999
0.999999
0.999999
0.999999
0.999999
0.999999
0.999998
0.999998
0.999998
0.999998
0.999998
0.999997
0.999997
0.999997
0.999997
0.999996
0.999995
0.999995
0.999995
0.999995
0.999994
0.999992
0.999992
0.999992
0.999992
0.99999
0.999988
0.999987
0.999987
0.999987
0.999983
0.99998
0.999979
0.999979
0.999979
0.999973
0.999968
0.999967
0.999966
0.999966
0.999958
0.999951
0.999948
0.999948
0.999947
0.999935
0.999924
0.99992
0.999919
0.999918
0.9999
0.999883
0.999878
0.999877
0.999875
0.999848
0.999825
0.999817
0.999815
0.999813
0.999773
0.99974
0.999729
0.999727
0.999723
0.999666
0.99962
0.999605
0.999601
0.999596
0.999515
0.999451
0.999431
0.999426
0.999418
0.999306
0.999219
0.999191
0.999184
0.999172
0.999019
0.998903
0.998865
0.998856
0.99884
0.998633
0.998479
0.99843
0.998418
0.998396
0.998119
0.99792
0.997856
0.99784
0.997811
0.997447
0.997192
0.997111
0.99709
0.997051
0.996581
0.996259
0.996157
0.996131
0.99608
0.995479
0.99508
0.994953
0.99492
0.994855
0.994099
0.993611
0.993456
0.993416
0.993332
0.992395
0.991806
0.991619
0.99157
0.991465
0.990319
0.989618
0.989396
0.989338
0.989208
0.987824
0.987002
0.986741
0.986673
0.986514
0.984865
0.983914
0.983612
0.983533
0.98334
0.981401
0.980313
0.979969
0.979877
0.979648
0.977393
0.976166
0.975778
0.975674
0.975402
0.972813
0.971443
0.971011
0.970894
0.970577
0.967635
0.966124
0.965648
0.965518
0.965152
0.961844
0.960195
0.959677
0.959533
0.959115
0.955431
0.953651
0.953091
0.952934
0.952462
0.948398
0.946493
0.945895
0.945725
0.945195
0.94075
0.938731
0.938099
0.937915
0.937327
0.932504
0.930381
0.929718
0.929522
0.928874
0.923681
0.921466
0.920775
0.920567
0.919858
0.914305
0.912012
0.911298
0.911079
0.91031
0.904408
0.90205
0.901318
0.901088
0.900258
0.894024
0.891615
0.890868
0.890628
0.88974
0.883188
0.880742
0.879985
0.879736
0.87879
0.871928
0.86946
0.8687
0.868446
0.867451
0.868077
0.865599
0.864833
0.86457
0.863545
0.848454
0.845963
0.845198
0.844926
0.84382
0.836122
0.833642
0.832884
0.832605
0.831451
0.823577
0.821119
0.820369
0.820085
0.818886
0.810809
0.808381
0.807644
0.807355
0.806115
0.797853
0.795465
0.794742
0.794448
0.793171
0.784743
0.782401
0.781695
0.781398
0.780086
0.77151
0.76922
0.768534
0.768233
0.766891
0.758182
0.755951
0.755285
0.754981
0.753613
0.744787
0.742619
0.741976
0.741669
0.740278
0.731351
0.72925
0.728629
0.728321
0.726911
0.717895
0.715865
0.715268
0.714959
0.713533
0.704443
0.702485
0.701913
0.701603
0.700164
0.691012
0.689129
0.688583
0.688272
0.686825
0.677621
0.675815
0.675295
0.674984
0.67353
0.664287
0.662558
0.662064
0.661753
0.660297
0.651024
0.649373
0.648905
0.648594
0.647139
0.637845
0.636272
0.63583
0.63552
0.634069
0.624763
0.623268
0.622852
0.622543
0.621098
0.611788
0.610372
0.60998
0.609673
0.608236
0.598931
0.597592
0.597225
0.59692
0.595494
0.5862
0.584937
0.584595
0.584292
0.582879
0.573603
0.572415
0.572098
0.571797
0.5704
0.561147
0.560034
0.55974
0.559442
0.558062
0.548839
0.547799
0.547528
0.547233
0.545871
0.536685
0.535715
0.535467
0.535175
0.533834
0.524688
0.523788
0.523562
0.523273
0.521955
0.512854
0.512022
0.511817
0.511532
0.510238
0.501187
0.500421
0.500237
0.499955
0.498686
0.489689
0.488989
0.488824
0.488546
0.487304
0.478365
0.477727
0.477583
0.477309
0.476093
0.467216
0.46664
0.466514
0.466245
0.465057
0.456245
0.455729
0.455622
0.455357
0.454198
0.445455
0.444997
0.444907
0.444647
0.443519
0.434848
0.434446
0.434374
0.434119
0.43302
0.424425
0.424078
0.424023
0.423773
0.422705
0.414189
0.413896
0.413856
0.413612
0.412576
0.404141
0.403901
0.403878
0.403639
0.402634
0.394284
0.394096
0.394089
0.393856
0.392883
0.384622
0.384484
0.384494
0.384267
0.383326
0.375158
0.375071
0.375097
0.374877
0.373969
0.365898
0.365861
0.365905
0.365692
0.364817
0.35685
0.356865
0.356927
0.356723
0.35588
0.348025
0.348095
0.348178
0.347983
0.347172
0.339442
0.339572
0.33968
0.339495
0.338718
0.331132
0.33133
0.331469
0.331298
0.330554
0.323149
0.323431
0.323612
0.323457
0.322747
0.315593
0.315988
0.316228
0.316097
0.315423
0.308663
0.309221
0.309553
0.309457
0.308824
0.302776
0.303576
0.304044
0.304001
0.303421
0.298723
0.299834
0.30047
0.300495
0.299994
0.297363
0.298664
0.299392
0.299469
0.299067
0.297905
0.299127
0.299802
0.299888
0.299575
0.298439
0.299564
0.300178
0.300266
0.300025
0.298819
0.299866
0.30043
0.300521
0.300345
0.299111
0.300091
0.300611
0.300705
0.300587
0.299345
0.300268
0.300749
0.300844
0.300778
0.299541
0.300411
0.300857
0.300954
0.300935
0.299707
0.300531
0.300944
0.301043
0.301065
0.299852
0.300633
0.301017
0.301117
0.301176
0.299979
0.300721
0.301078
0.301178
0.30127
0.300091
0.300799
0.30113
0.301231
0.301352
0.300193
0.300868
0.301176
0.301276
0.301422
0.300284
0.300929
0.301216
0.301316
0.301484
0.300367
0.300985
0.301251
0.30135
0.301538
0.300443
0.301035
0.301283
0.301381
0.301585
0.300512
0.301081
0.301311
0.301409
0.301626
0.300576
0.301123
0.301337
0.301433
0.301663
0.300635
0.301161
0.30136
0.301456
0.301694
0.30069
0.301197
0.301382
0.301476
0.301721
0.300741
0.30123
0.301402
0.301495
0.301745
0.300788
0.30126
0.30142
0.301513
0.301765
0.300832
0.301288
0.301437
0.301529
0.301783
0.300874
0.301314
0.301453
0.301544
0.301797
0.300913
0.301338
0.301467
0.301559
0.301809
0.30095
0.30136
0.301481
0.301573
0.301819
0.300985
0.301381
0.301494
0.301586
0.301827
0.301018
0.3014
0.301506
0.301598
0.301832
0.301049
0.301418
0.301518
0.30161
0.301836
0.301078
0.301434
0.301529
0.301622
0.301839
0.301106
0.301449
0.301539
0.301633
0.30184
0.301133
0.301463
0.301549
0.301644
0.30184
0.301158
0.301476
0.301558
0.301655
0.301838
0.301183
0.301488
0.301567
0.301665
0.301836
0.301206
0.301499
0.301576
0.301676
0.301833
0.301228
0.301509
0.301584
0.301686
0.301829
0.301249
0.301518
0.301592
0.301696
0.301826
0.30127
0.301528
0.3016
0.301707
0.301823
0.301292
0.301537
0.301608
0.301718
0.30182
0.301312
0.301545
0.301614
0.301727
0.301816
0.30133
0.301549
0.301617
0.301733
0.301809
0.30134
0.301546
0.301613
0.301732
0.301795
0.301341
0.301532
0.301599
0.301721
0.301771
0.30133
0.301509
0.301575
0.301702
0.30174
0.301315
0.301484
0.301551
0.301683
0.301711
0.301309
0.30147
0.301538
0.301674
0.301693
0.301323
0.301475
0.301544
0.301685
0.301697
0.301361
0.3015
0.301568
0.301714
0.30172
0.30141
0.301533
0.301598
0.301749
0.30175
0.301451
0.301563
0.301626
0.30178
0.301772
0.301485
0.30157
0.301626
0.301786
0.301789
0.301515
0.301583
0.301638
0.301803
0.301798
0.301534
0.301584
0.301636
0.301807
0.301803
0.301552
0.301584
0.301632
0.301809
0.301809
0.301571
0.301583
0.301626
0.301809
0.301816
0.301591
0.301581
0.301619
0.301808
0.301823
0.301611
0.301578
0.30161
0.301805
0.301833
0.301631
0.301574
0.301599
0.3018
0.301844
0.301652
0.301569
0.301587
0.301793
0.301856
0.301672
0.301562
0.301571
0.301784
0.30187
0.301692
0.301553
0.301552
0.30177
0.301885
0.301711
0.30154
0.301529
0.301752
0.3019
0.301726
0.301522
0.3015
0.301727
0.301915
0.301735
0.301496
0.301461
0.301692
0.301927
0.301733
0.301457
0.30141
0.301644
0.301933
0.301714
0.3014
0.30134
0.301575
0.301927
0.301667
0.301315
0.301241
0.301477
0.301901
0.301576
0.301187
0.301099
0.301334
0.301842
0.301415
0.300993
0.300893
0.301124
0.301729
0.301146
0.300699
0.300589
0.300815
0.301532
0.300712
0.300254
0.300136
0.300354
0.301202
0.300025
0.299578
0.299459
0.299668
0.300668
0.298951
0.298554
0.298441
0.29864
0.29982
0.297295
0.297004
0.29691
0.297098
0.298494
0.294763
0.294666
0.29461
0.294789
0.296447
0.290927
0.291156
0.291164
0.291338
0.293319
0.285174
0.285919
0.286029
0.286206
0.288591
0.276662
0.278187
0.278449
0.278643
0.281536
0.264317
0.266955
0.267435
0.267666
0.271186
0.246983
0.251085
0.251851
0.252143
0.256392
0.223903
0.229669
0.230769
0.231144
0.236123
0.195612
0.202819
0.204223
0.204683
0.210163
0.16498
0.172689
0.174237
0.174744
0.180141
0.137302
0.143959
0.145354
0.145823
0.150277
0.117735
0.122108
0.123075
0.123412
0.126276
0.107232
0.109422
0.109931
0.110114
0.111509
0.102705
0.103622
0.103843
0.103924
0.104476
0.100973
0.101326
0.101413
0.101445
0.101642
0.100344
0.100475
0.100508
0.10052
0.100587
0.100121
0.100168
0.100181
0.100185
0.100207
0.100042
0.100059
0.100064
0.100065
0.100073
0.100015
0.100021
0.100022
0.100023
0.100025
0.100005
0.100007
0.100008
0.100008
0.100009
0.100002
0.100003
0.100003
0.100003
0.100003
0.100001
0.100001
0.100001
0.100001
0.100001
0.1
0.1
0.1
0.1
0.1
0.1
0.1
0.1
0.1
0.1
0.1
0.1
0.1
0.1
0.1
0.1
0.1
0.1
0.1
0.1
0.1
0.1
0.1
0.1
0.1
0.1
0.1
0.1
0.1
0.1
0.1
0.1
0.1
0.1
0.1
0.1
0.1
0.1
0.1
0.1
0.1
0.1
0.1
0.1
0.1
0.1
0.1
0.1
0.1
0.1
0.1
0.1
0.1
0.1
0.1
0.1
0.1
0.1
0.1
0.1
0.1
0.1
0.1
0.1
0.1
0.1
0.1
0.1
0.1
0.1
0.1
0.1
0.1
0.1
0.1
0.1
0.1
0.1
0.1
0.1
0.1
0.1
0.1
0.1
0.1
0.1
0.1
0.1
0.1
0.1
0.1
0.1
0.1
0.1
0.1
0.1
0.1
0.1
0.1
0.1
0.1
0.1
0.1
0.1
0.1
0.1
0.1
0.1