# vtk DataFile Version 3.0
2D CFD data
ASCII
DATASET STRUCTURED_GRID
DIMENSIONS 50 25 1
POINTS 1250 float
0.294118 0.2 0.0
0.294118 0.6 0.0
0.294118 1 0.0
0.294118 1.4 0.0
0.294118 1.8 0.0
0.294118 2.2 0.0
0.294118 2.6 0.0
0.294118 3 0.0
0.294118 3.4 0.0
0.294118 3.8 0.0
0.294118 4.2 0.0
0.294118 4.6 0.0
0.294118 5 0.0
0.294118 5.4 0.0
0.294118 5.8 0.0
0.294118 6.2 0.0
0.294118 6.6 0.0
0.294118 7 0.0
0.294118 7.4 0.0
0.294118 7.8 0.0
0.294118 8.2 0.0
0.294118 8.6 0.0
0.294118 9 0.0
0.294118 9.4 0.0
0.294118 9.8 0.0
0.882353 0.2 0.0
0.882353 0.6 0.0
0.882353 1 0.0
0.882353 1.4 0.0
0.882353 1.8 0.0
0.882353 2.2 0.0
0.882353 2.6 0.0
0.882353 3 0.0
0.882353 3.4 0.0
0.882353 3.8 0.0
0.882353 4.2 0.0
0.882353 4.6 0.0
0.882353 5 0.0
0.882353 5.4 0.0
0.882353 5.8 0.0
0.882353 6.2 0.0
0.882353 6.6 0.0
0.882353 7 0.0
0.882353 7.4 0.0
0.882353 7.8 0.0
0.882353 8.2 0.0
0.882353 8.6 0.0
0.882353 9 0.0
0.882353 9.4 0.0
0.882353 9.8 0.0
1.47059 0.2 0.0
1.47059 0.6 0.0
1.47059 1 0.0
1.47059 1.4 0.0
1.47059 1.8 0.0
1.47059 2.2 0.0
1.47059 2.6 0.0
1.47059 3 0.0
1.47059 3.4 0.0
1.47059 3.8 0.0
1.47059 4.2 0.0
1.47059 4.6 0.0
1.47059 5 0.0
1.47059 5.4 0.0
1.47059 5.8 0.0
1.47059 6.2 0.0
1.47059 6.6 0.0
1.47059 7 0.0
1.47059 7.4 0.0
1.47059 7.8 0.0
1.47059 8.2 0.0
1.47059 8.6 0.0
1.47059 9 0.0
1.47059 9.4 0.0
1.47059 9.8 0.0
2.05882 0.2 0.0
2.05882 0.6 0.0
2.05882 1 0.0
2.05882 1.4 0.0
2.05882 1.8 0.0
2.05882 2.2 0.0
2.05882 2.6 0.0
2.05882 3 0.0
2.05882 3.4 0.0
2.05882 3.8 0.0
2.05882 4.2 0.0
2.05882 4.6 0.0
2.05882 5 0.0
2.05882 5.4 0.0
2.05882 5.8 0.0
2.05882 6.2 0.0
2.05882 6.6 0.0
2.05882 7 0.0
2.05882 7.4 0.0
2.05882 7.8 0.0
2.05882 8.2 0.0
2.05882 8.6 0.0
2.05882 9 0.0
2.05882 9.4 0.0
2.05882 9.8 0.0
2.64706 0.2 0.0
2.64706 0.6 0.0
2.64706 1 0.0
2.64706 1.4 0.0
2.64706 1.8 0.0
2.64706 2.2 0.0
2.64706 2.6 0.0
2.64706 3 0.0
2.64706 3.4 0.0
2.64706 3.8 0.0
2.64706 4.2 0.0
2.64706 4.6 0.0
2.64706 5 0.0
2.64706 5.4 0.0
2.64706 5.8 0.0
2.64706 6.2 0.0
2.64706 6.6 0.0
2.64706 7 0.0
2.64706 7.4 0.0
2.64706 7.8 0.0
2.64706 8.2 0.0
2.64706 8.6 0.0
2.64706 9 0.0
2.64706 9.4 0.0
2.64706 9.8 0.0
3.23529 0.2 0.0
3.23529 0.6 0.0
3.23529 1 0.0
3.23529 1.4 0.0
3.23529 1.8 0.0
3.23529 2.2 0.0
3.23529 2.6 0.0
3.23529 3 0.0
3.23529 3.4 0.0
3.23529 3.8 0.0
3.23529 4.2 0.0
3.23529 4.6 0.0
3.23529 5 0.0
3.23529 5.4 0.0
3.23529 5.8 0.0
3.23529 6.2 0.0
3.23529 6.6 0.0
3.23529 7 0.0
3.23529 7.4 0.0
3.23529 7.8 0.0
3.23529 8.2 0.0
3.23529 8.6 0.0
3.23529 9 0.0
3.23529 9.4 0.0
3.23529 9.8 0.0
3.82353 0.2 0.0
3.82353 0.6 0.0
3.82353 1 0.0
3.82353 1.4 0.0
3.82353 1.8 0.0
3.82353 2.2 0.0
3.82353 2.6 0.0
3.82353 3 0.0
3.82353 3.4 0.0
3.82353 3.8 0.0
3.82353 4.2 0.0
3.82353 4.6 0.0
3.82353 5 0.0
3.82353 5.4 0.0
3.82353 5.8 0.0
3.82353 6.2 0.0
3.82353 6.6 0.0
3.82353 7 0.0
3.82353 7.4 0.0
3.82353 7.8 0.0
3.82353 8.2 0.0
3.82353 8.6 0.0
3.82353 9 0.0
3.82353 9.4 0.0
3.82353 9.8 0.0
4.41176 0.2 0.0
4.41176 0.6 0.0
4.41176 1 0.0
4.41176 1.4 0.0
4.41176 1.8 0.0
4.41176 2.2 0.0
4.41176 2.6 0.0
4.41176 3 0.0
4.41176 3.4 0.0
4.41176 3.8 0.0
4.41176 4.2 0.0
4.41176 4.6 0.0
4.41176 5 0.0
4.41176 5.4 0.0
4.41176 5.8 0.0
4.41176 6.2 0.0
4.41176 6.6 0.0
4.41176 7 0.0
4.41176 7.4 0.0
4.41176 7.8 0.0
4.41176 8.2 0.0
4.41176 8.6 0.0
4.41176 9 0.0
4.41176 9.4 0.0
4.41176 9.8 0.0
5 0.2 0.0
5 0.6 0.0
5 1 0.0
5 1.4 0.0
5 1.8 0.0
5 2.2 0.0
5 2.6 0.0
5 3 0.0
5 3.4 0.0
5 3.8 0.0
5 4.2 0.0
5 4.6 0.0
5 5 0.0
5 5.4 0.0
5 5.8 0.0
5 6.2 0.0
5 6.6 0.0
5 7 0.0
5 7.4 0.0
5 7.8 0.0
5 8.2 0.0
5 8.6 0.0
5 9 0.0
5 9.4 0.0
5 9.8 0.0
5.58824 0.2 0.0
5.58824 0.6 0.0
5.58824 1 0.0
5.58824 1.4 0.0
5.58824 1.8 0.0
5.58824 2.2 0.0
5.58824 2.6 0.0
5.58824 3 0.0
5.58824 3.4 0.0
5.58824 3.8 0.0
5.58824 4.2 0.0
5.58824 4.6 0.0
5.58824 5 0.0
5.58824 5.4 0.0
5.58824 5.8 0.0
5.58824 6.2 0.0
5.58824 6.6 0.0
5.58824 7 0.0
5.58824 7.4 0.0
5.58824 7.8 0.0
5.58824 8.2 0.0
5.58824 8.6 0.0
5.58824 9 0.0
5.58824 9.4 0.0
5.58824 9.8 0.0
6.17647 0.2 0.0
6.17647 0.6 0.0
6.17647 1 0.0
6.17647 1.4 0.0
6.17647 1.8 0.0
6.17647 2.2 0.0
6.17647 2.6 0.0
6.17647 3 0.0
6.17647 3.4 0.0
6.17647 3.8 0.0
6.17647 4.2 0.0
6.17647 4.6 0.0
6.17647 5 0.0
6.17647 5.4 0.0
6.17647 5.8 0.0
6.17647 6.2 0.0
6.17647 6.6 0.0
6.17647 7 0.0
6.17647 7.4 0.0
6.17647 7.8 0.0
6.17647 8.2 0.0
6.17647 8.6 0.0
6.17647 9 0.0
6.17647 9.4 0.0
6.17647 9.8 0.0
6.76471 0.2 0.0
6.76471 0.6 0.0
6.76471 1 0.0
6.76471 1.4 0.0
6.76471 1.8 0.0
6.76471 2.2 0.0
6.76471 2.6 0.0
6.76471 3 0.0
6.76471 3.4 0.0
6.76471 3.8 0.0
6.76471 4.2 0.0
6.76471 4.6 0.0
6.76471 5 0.0
6.76471 5.4 0.0
6.76471 5.8 0.0
6.76471 6.2 0.0
6.76471 6.6 0.0
6.76471 7 0.0
6.76471 7.4 0.0
6.76471 7.8 0.0
6.76471 8.2 0.0
6.76471 8.6 0.0
6.76471 9 0.0
6.76471 9.4 0.0
6.76471 9.8 0.0
7.35294 0.2 0.0
7.35294 0.6 0.0
7.35294 1 0.0
7.35294 1.4 0.0
7.35294 1.8 0.0
7.35294 2.2 0.0
7.35294 2.6 0.0
7.35294 3 0.0
7.35294 3.4 0.0
7.35294 3.8 0.0
7.35294 4.2 0.0
7.35294 4.6 0.0
7.35294 5 0.0
7.35294 5.4 0.0
7.35294 5.8 0.0
7.35294 6.2 0.0
7.35294 6.6 0.0
7.35294 7 0.0
7.35294 7.4 0.0
7.35294 7.8 0.0
7.35294 8.2 0.0
7.35294 8.6 0.0
7.35294 9 0.0
7.35294 9.4 0.0
7.35294 9.8 0.0
7.94118 0.2 0.0
7.94118 0.6 0.0
7.94118 1 0.0
7.94118 1.4 0.0
7.94118 1.8 0.0
7.94118 2.2 0.0
7.94118 2.6 0.0
7.94118 3 0.0
7.94118 3.4 0.0
7.94118 3.8 0.0
7.94118 4.2 0.0
7.94118 4.6 0.0
7.94118 5 0.0
7.94118 5.4 0.0
7.94118 5.8 0.0
7.94118 6.2 0.0
7.94118 6.6 0.0
7.94118 7 0.0
7.94118 7.4 0.0
7.94118 7.8 0.0
7.94118 8.2 0.0
7.94118 8.6 0.0
7.94118 9 0.0
7.94118 9.4 0.0
7.94118 9.8 0.0
8.52941 0.2 0.0
8.52941 0.6 0.0
8.52941 1 0.0
8.52941 1.4 0.0
8.52941 1.8 0.0
8.52941 2.2 0.0
8.52941 2.6 0.0
8.52941 3 0.0
8.52941 3.4 0.0
8.52941 3.8 0.0
8.52941 4.2 0.0
8.52941 4.6 0.0
8.52941 5 0.0
8.52941 5.4 0.0
8.52941 5.8 0.0
8.52941 6.2 0.0
8.52941 6.6 0.0
8.52941 7 0.0
8.52941 7.4 0.0
8.52941 7.8 0.0
8.52941 8.2 0.0
8.52941 8.6 0.0
8.52941 9 0.0
8.52941 9.4 0.0
8.52941 9.8 0.0
9.11765 0.2 0.0
9.11765 0.6 0.0
9.11765 1 0.0
9.11765 1.4 0.0
9.11765 1.8 0.0
9.11765 2.2 0.0
9.11765 2.6 0.0
9.11765 3 0.0
9.11765 3.4 0.0
9.11765 3.8 0.0
9.11765 4.2 0.0
9.11765 4.6 0.0
9.11765 5 0.0
9.11765 5.4 0.0
9.11765 5.8 0.0
9.11765 6.2 0.0
9.11765 6.6 0.0
9.11765 7 0.0
9.11765 7.4 0.0
9.11765 7.8 0.0
9.11765 8.2 0.0
9.11765 8.6 0.0
9.11765 9 0.0
9.11765 9.4 0.0
9.11765 9.8 0.0
9.70588 0.2 0.0
9.70588 0.6 0.0
9.70588 1 0.0
9.70588 1.4 0.0
9.70588 1.8 0.0
9.70588 2.2 0.0
9.70588 2.6 0.0
9.70588 3 0.0
9.70588 3.4 0.0
9.70588 3.8 0.0
9.70588 4.2 0.0
9.70588 4.6 0.0
9.70588 5 0.0
9.70588 5.4 0.0
9.70588 5.8 0.0
9.70588 6.2 0.0
9.70588 6.6 0.0
9.70588 7 0.0
9.70588 7.4 0.0
9.70588 7.8 0.0
9.70588 8.2 0.0
9.70588 8.6 0.0
9.70588 9 0.0
9.70588 9.4 0.0
9.70588 9.8 0.0
10.2941 0.277232 0.0
10.2941 0.67408 0.0
10.2941 1.07093 0.0
10.2941 1.46778 0.0
10.2941 1.86462 0.0
10.2941 2.26147 0.0
10.2941 2.65832 0.0
10.2941 3.05517 0.0
10.2941 3.45201 0.0
10.2941 3.84886 0.0
10.2941 4.24571 0.0
10.2941 4.64256 0.0
10.2941 5.0394 0.0
10.2941 5.43625 0.0
10.2941 5.8331 0.0
10.2941 6.22995 0.0
10.2941 6.62679 0.0
10.2941 7.02364 0.0
10.2941 7.42049 0.0
10.2941 7.81734 0.0
10.2941 8.21419 0.0
10.2941 8.61103 0.0
10.2941 9.00788 0.0
10.2941 9.40473 0.0
10.2941 9.80158 0.0
10.8824 0.431697 0.0
10.8824 0.82224 0.0
10.8824 1.21278 0.0
10.8824 1.60333 0.0
10.8824 1.99387 0.0
10.8824 2.38441 0.0
10.8824 2.77496 0.0
10.8824 3.1655 0.0
10.8824 3.55604 0.0
10.8824 3.94658 0.0
10.8824 4.33713 0.0
10.8824 4.72767 0.0
10.8824 5.11821 0.0
10.8824 5.50876 0.0
10.8824 5.8993 0.0
10.8824 6.28984 0.0
10.8824 6.68038 0.0
10.8824 7.07093 0.0
10.8824 7.46147 0.0
10.8824 7.85201 0.0
10.8824 8.24256 0.0
10.8824 8.6331 0.0
10.8824 9.02364 0.0
10.8824 9.41419 0.0
10.8824 9.80473 0.0
11.4706 0.586162 0.0
11.4706 0.9704 0.0
11.4706 1.35464 0.0
11.4706 1.73888 0.0
11.4706 2.12312 0.0
11.4706 2.50735 0.0
11.4706 2.89159 0.0
11.4706 3.27583 0.0
11.4706 3.66007 0.0
11.4706 4.04431 0.0
11.4706 4.42854 0.0
11.4706 4.81278 0.0
11.4706 5.19702 0.0
11.4706 5.58126 0.0
11.4706 5.9655 0.0
11.4706 6.34974 0.0
11.4706 6.73397 0.0
11.4706 7.11821 0.0
11.4706 7.50245 0.0
11.4706 7.88669 0.0
11.4706 8.27093 0.0
11.4706 8.65517 0.0
11.4706 9.0394 0.0
11.4706 9.42364 0.0
11.4706 9.80788 0.0
12.0588 0.740627 0.0
12.0588 1.11856 0.0
12.0588 1.49649 0.0
12.0588 1.87443 0.0
12.0588 2.25236 0.0
12.0588 2.63029 0.0
12.0588 3.00823 0.0
12.0588 3.38616 0.0
12.0588 3.7641 0.0
12.0588 4.14203 0.0
12.0588 4.51996 0.0
12.0588 4.8979 0.0
12.0588 5.27583 0.0
12.0588 5.65376 0.0
12.0588 6.0317 0.0
12.0588 6.40963 0.0
12.0588 6.78756 0.0
12.0588 7.1655 0.0
12.0588 7.54343 0.0
12.0588 7.92137 0.0
12.0588 8.2993 0.0
12.0588 8.67723 0.0
12.0588 9.05517 0.0
12.0588 9.4331 0.0
12.0588 9.81103 0.0
12.6471 0.895092 0.0
12.6471 1.26672 0.0
12.6471 1.63835 0.0
12.6471 2.00998 0.0
12.6471 2.38161 0.0
12.6471 2.75324 0.0
12.6471 3.12487 0.0
12.6471 3.49649 0.0
12.6471 3.86812 0.0
12.6471 4.23975 0.0
12.6471 4.61138 0.0
12.6471 4.98301 0.0
12.6471 5.35464 0.0
12.6471 5.72627 0.0
12.6471 6.0979 0.0
12.6471 6.46953 0.0
12.6471 6.84115 0.0
12.6471 7.21278 0.0
12.6471 7.58441 0.0
12.6471 7.95604 0.0
12.6471 8.32767 0.0
12.6471 8.6993 0.0
12.6471 9.07093 0.0
12.6471 9.44256 0.0
12.6471 9.81419 0.0
13.2353 1.04956 0.0
13.2353 1.41488 0.0
13.2353 1.78021 0.0
13.2353 2.14553 0.0
13.2353 2.51085 0.0
13.2353 2.87618 0.0
13.2353 3.2415 0.0
13.2353 3.60683 0.0
13.2353 3.97215 0.0
13.2353 4.33747 0.0
13.2353 4.7028 0.0
13.2353 5.06812 0.0
13.2353 5.43345 0.0
13.2353 5.79877 0.0
13.2353 6.1641 0.0
13.2353 6.52942 0.0
13.2353 6.89474 0.0
13.2353 7.26007 0.0
13.2353 7.62539 0.0
13.2353 7.99072 0.0
13.2353 8.35604 0.0
13.2353 8.72137 0.0
13.2353 9.08669 0.0
13.2353 9.45201 0.0
13.2353 9.81734 0.0
13.8235 1.20402 0.0
13.8235 1.56304 0.0
13.8235 1.92206 0.0
13.8235 2.28108 0.0
13.8235 2.6401 0.0
13.8235 2.99912 0.0
13.8235 3.35814 0.0
13.8235 3.71716 0.0
13.8235 4.07618 0.0
13.8235 4.4352 0.0
13.8235 4.79422 0.0
13.8235 5.15324 0.0
13.8235 5.51226 0.0
13.8235 5.87128 0.0
13.8235 6.23029 0.0
13.8235 6.58931 0.0
13.8235 6.94833 0.0
13.8235 7.30735 0.0
13.8235 7.66637 0.0
[...]
POINT_DATA 1250
SCALARS density float
LOOKUP_TABLE default
0.116144
0.116144
0.116144
0.116144
0.116144
0.116144
0.116144
0.116144
0.116144
0.116144
0.116144
0.116144
0.116144
0.116144
0.116144
0.116144
0.116144
0.116144
0.116144
0.116144
0.116144
0.116144
0.116144
0.116144
0.116144
0.116144
0.116144
0.116144
0.116144
0.116144
0.116144
0.116144
0.116144
0.116144
0.116144
0.116144
0.116144
0.116144
0.116144
0.116144
0.116144
0.116144
0.116144
0.116144
0.116144
0.116144
0.116144
0.116144
0.116144
0.116144
0.116144
0.116144
0.116144
0.116144
0.116144
0.116144
0.116144
0.116144
0.116144
0.116144
0.116144
0.116144
0.116144
0.116144
0.116144
0.116144
0.116144
0.116144
0.116144
0.116144
0.116144
0.116144
0.116144
0.116144
0.116144
0.116144
0.116144
0.116144
0.116144
0.116144
0.116144
0.116144
0.116144
0.116144
0.116144
0.116144
0.116144
0.116144
0.116144
0.116144
0.116144
0.116144
0.116144
0.116144
0.116144
0.116144
0.116144
0.116144
0.116144
0.116144
0.116144
0.116144
0.116144
0.116144
0.116144
0.116144
0.116144
0.116144
0.116144
0.116144
0.116144
0.116144
0.116144
0.116144
0.116144
0.116144
0.116144
0.116144
0.116144
0.116144
0.116144
0.116144
0.116144
0.116144
0.116144
0.116144
0.116144
0.116144
0.116144
0.116144
0.116144
0.116144
0.116144
0.116144
0.116144
0.116144
0.116144
0.116144
0.116144
0.116144
0.116144
0.116144
0.116144
0.116144
0.116144
0.116144
0.116144
0.116144
0.116144
0.116144
0.116144
0.116144
0.116144
0.116144
0.116144
0.116144
0.116144
0.116144
0.116144
0.116144
0.116144
0.116144
0.116144
0.116144
0.116144
0.116144
0.116144
0.116144
0.116144
0.116144
0.116144
0.116144
0.116144
0.116144
0.116144
0.116144
0.116144
0.116144
0.116144
0.116144
0.116144
0.116144
0.116144
0.116144
0.116144
0.116144
0.116144
0.116144
0.116144
0.116144
0.116144
0.116144
0.116144
0.116144
0.116144
0.116144
0.116144
0.116144
0.116144
0.116144
0.116144
0.116144
0.116144
0.116144
0.116144
0.116144
0.116144
0.116144
0.116144
0.116144
0.116144
0.116144
0.116144
0.116144
0.116144
0.116144
0.116144
0.116144
0.116144
0.116144
0.116144
0.116144
0.116144
0.116144
0.116144
0.116144
0.116144
0.116144
0.116144
0.116144
0.116144
0.116144
0.116144
0.116144
0.116144
0.116144
0.116144
0.116144
0.116144
0.116144
0.116144
0.116144
0.116144
0.116144
0.116144
0.116144
0.116144
0.116144
0.116144
0.116144
0.116144
0.116144
0.116144
0.116144
0.116144
0.116144
0.116144
0.116144
0.116144
0.116144
0.116144
0.116144
0.116144
0.116144
0.116144
0.116144
0.116144
0.116144
0.116144
0.116144
0.116144
0.116144
0.116144
0.116144
0.116144
0.116144
0.116144
0.116144
0.116144
0.116144
0.116144
0.116144
0.116144
0.116144
0.116144
0.116144
0.116144
0.116144
0.116144
0.116144
0.116144
0.116144
0.116144
0.116144
0.116144
0.116144
0.116144
0.116144
0.116144
0.116144
0.116144
0.116144
0.116144
0.116144
0.116144
0.116144
0.116144
0.116144
0.116144
0.116144
0.116144
0.116144
0.116144
0.116144
0.116144
0.116144
0.116144
0.116144
0.116144
0.116144
0.116144
0.116144
0.116144
0.116144
0.116144
0.116144
0.116144
0.116144
0.116144
0.116144
0.116144
0.116144
0.116144
0.116144
0.116144
0.116144
0.116144
0.116144
0.116144
0.116144
0.116144
0.116144
0.116144
0.116144
0.116144
0.116144
0.116144
0.116144
0.116144
0.116144
0.116144
0.116144
0.116144
0.116144
0.116144
0.116144
0.116144
0.116144
0.116144
0.116144
0.116144
0.116144
0.116144
0.116144
0.116144
0.116144
0.116144
0.116144
0.116144
0.116144
0.116144
0.116144
0.116144
0.116144
0.116144
0.116144
0.116144
0.116144
0.116144
0.116144
0.116144
0.116144
0.116144
0.116144
0.116144
0.116144
0.116144
0.116144
0.116144
0.116144
0.116144
0.116144
0.116144
0.116144
0.116144
0.116144
0.116144
0.116144
0.116144
0.116144
0.116144
0.116144
0.116144
0.116144
0.116144
0.116144
0.116144
0.116144
0.116144
0.116144
0.116144
0.116144
0.116144
0.116144
0.116144
0.116144
0.116144
0.116144
0.116144
0.116144
0.116144
0.116144
0.116144
0.116144
0.116144
0.158224
0.134187
0.123243
0.118683
0.117002
0.116429
0.116239
0.116176
0.116155
0.116148
0.116145
0.116144
0.116144
0.116144
0.116144
0.116144
0.116144
0.116144
0.116144
0.116144
0.116144
0.116144
0.116144
0.116144
0.116144
0.183476
0.156075
0.137188
0.125917
0.120226
0.117737
0.116746
0.116369
0.116228
0.116176
0.116156
0.116149
0.116146
0.116145
0.116144
0.116144
0.116144
0.116144
0.116144
0.116144
0.116144
0.116144
0.116144
0.116144
0.116144
0.198332
0.17526
0.15437
0.137981
0.127187
0.121203
0.118313
0.117041
0.116509
0.116292
0.116204
0.116168
0.116154
0.116148
0.116146
0.116145
0.116144
0.116144
0.116144
0.116144
0.116144
0.116144
0.116144
0.116144
0.116144
0.2069
0.189761
0.171087
0.153046
0.138174
0.127915
0.121893
0.118783
0.117312
0.116652
0.116363
0.116238
0.116185
0.116162
0.116152
0.116147
0.116145
0.116145
0.116144
0.116144
0.116144
0.116144
0.116144
0.116144
0.116144
0.211515
0.199946
0.185071
0.16848
0.15203
0.138225
0.128435
0.122449
0.119197
0.117572
0.116799
0.116442
0.116279
0.116205
0.116172
0.116157
0.11615
0.116147
0.116145
0.116145
0.116144
0.116144
0.116144
0.116144
0.116144
0.213658
0.206504
0.195853
0.182139
0.166668
0.151304
0.138309
0.1289
0.122957
0.119592
0.117832
0.116955
0.11653
0.116327
0.116231
0.116185
0.116164
0.116153
0.116148
0.116146
0.116145
0.116145
0.116144
0.116144
0.116144
0.214412
0.210037
0.203281
0.19345
0.180118
0.165386
0.150857
0.138496
0.129384
0.123465
0.119993
0.118103
0.117123
0.116628
0.116383
0.116261
0.116202
0.116172
0.116158
0.116151
0.116147
0.116146
0.116145
0.116144
0.116144
0.214652
0.211832
0.207317
0.201102
0.191819
0.178757
0.16452
0.150662
0.13881
0.129923
0.124001
0.120415
0.118394
0.117308
0.11674
0.116447
0.116298
0.116222
0.116184
0.116164
0.116154
0.116149
0.116147
0.116146
0.116145
0.214522
0.212655
0.209626
0.205455
0.199215
0.190443
0.17808
0.16401
0.150686
0.139245
0.130528
0.124577
0.120868
0.118711
0.117513
0.116866
0.116523
0.116342
0.116248
0.116198
0.116172
0.116159
0.116152
0.116149
0.116147
0.214093
0.212813
0.210741
0.207951
0.203798
0.197694
0.18922
0.177754
0.163751
0.150877
0.139782
0.131193
0.125195
0.121355
0.119055
0.117739
0.117009
0.11661
0.116394
0.116278
0.116216
0.116183
0.116166
0.116157
0.116153
0.213406
0.212493
0.211029
0.209136
0.206409
0.202338
0.196381
0.187969
0.177285
0.164019
0.151228
0.140397
0.131907
0.125851
0.121874
0.119427
0.117989
0.117169
0.11671
0.116455
0.116315
0.116239
0.116198
0.116177
0.116167
0.212498
0.21182
0.210742
0.209418
0.207619
0.204965
0.200964
0.195003
0.186831
0.176706
0.164591
0.151691
0.141062
0.132653
0.126535
0.122422
0.119825
0.118261
0.117346
0.116823
0.116526
0.116361
0.11627
0.116222
0.116199
0.211409
0.210888
0.210058
0.209092
0.207876
0.206156
0.203544
0.19951
0.193659
0.185852
0.176014
0.164945
0.152508
0.141778
0.133416
0.127237
0.122991
0.120247
0.118554
0.117543
0.116952
0.116612
0.116422
0.116321
0.116271
0.210188
0.209778
0.209113
0.208372
0.207517
0.206388
0.204704
0.202056
0.198054
0.192405
0.184801
0.175447
0.164882
0.153641
0.142553
0.134188
0.127949
0.123577
0.120689
0.118869
0.117761
0.117105
0.116728
0.116523
0.116421
0.208887
0.20856
0.208009
0.207415
0.206782
0.206018
0.20493
0.203219
0.200565
0.196653
0.19111
0.183811
0.1749
0.164678
0.154366
0.143778
0.135001
0.128668
0.124177
0.121155
0.119216
0.11802
0.117312
0.116919
0.11672
0.207556
0.207296
0.206832
0.206337
0.205842
0.205299
0.204583
0.203482
0.201752
0.19912
0.195243
0.189865
0.18288
0.174295
0.164711
0.154589
0.145037
0.136024
0.129412
0.124802
0.121663
0.119627
0.118375
0.117659
0.117289
0.206243
0.20604
0.205644
0.205222
0.204817
0.204409
0.203919
0.203204
0.202083
0.200342
0.197702
0.193892
0.1887
0.181954
0.17382
0.16458
0.154933
0.145647
0.137446
0.130372
0.125507
0.122281
0.120208
0.11898
0.118325
0.151488
0.172245
0.184407
0.191409
0.195582
0.198118
0.199628
0.200398
0.200534
0.200024
0.198748
0.196529
0.19317
0.188448
0.182276
0.174694
0.166
0.15678
0.147634
0.139144
0.132429
0.127416
0.123911
0.121721
0.120791
0.127763
0.146199
0.161841
0.173136
0.181185
0.186936
0.191043
0.193922
0.195823
0.196873
0.19709
0.196414
0.194729
0.19186
0.187654
0.182016
0.174978
0.166837
0.157974
0.149069
0.141158
0.134595
0.129589
0.126272
0.125009
0.116005
0.129228
0.143724
0.156012
0.165917
0.173768
0.179939
0.184741
0.188401
0.191072
0.192827
0.193674
0.193568
0.192398
0.190031
0.186336
0.181218
0.174757
0.167119
0.158849
0.150754
0.143397
0.137314
0.133059
0.13164
0.109491
0.118459
0.130383
0.141852
0.15204
0.160788
0.168166
0.17431
0.179352
0.183403
0.18653
0.188762
0.190086
0.19044
0.189726
0.187827
0.184618
0.180059
0.174187
0.167352
0.160102
0.152995
0.146719
0.14218
0.141114
0.10554
0.111559
0.120848
0.130762
0.140317
0.149086
0.156917
0.163785
0.169721
0.17477
0.178969
0.182335
0.184864
0.186518
0.18723
0.186909
0.185444
0.182759
0.178847
0.17391
0.168302
0.162476
0.157111
0.153285
0.15335
0.102963
0.10704
0.114087
0.122295
0.130783
0.139037
0.146778
0.153868
0.160252
0.165912
0.170848
0.175055
0.178522
0.181223
0.18311
0.184117
0.184166
0.183199
0.181216
0.178362
0.174886
0.171142
0.167702
0.165632
0.167619
0.101184
0.103997
0.109283
0.115904
0.123187
0.130646
0.137953
0.144906
0.151387
0.157329
0.162697
0.167463
0.171608
0.175103
0.177915
0.180003
0.181326
0.181869
0.181681
0.180917
0.179804
0.178626
0.177812
0.178263
0.182683
0.0998994
0.101888
0.105844
0.111101
0.117206
0.123757
0.130438
0.137018
0.143345
0.149316
0.154867
0.159953
0.164541
0.168604
0.172116
0.175061
0.177438
0.17929
0.180734
0.181978
0.183268
0.184834
0.186932
0.190213
0.197121
0.0989373
0.100384
0.103355
0.107494
0.112528
0.118165
0.12413
0.130199
0.136203
0.14202
0.147566
0.15278
0.157621
0.16206
0.166083
0.169697
0.172944
0.175932
0.178855
0.181985
0.185585
0.18981
0.194718
0.200679
0.209703
0.098197
0.0992827
0.101534
0.104781
0.108886
0.113661
0.118892
0.12438
0.129959
0.135498
0.140901
0.146098
0.151043
0.155707
0.16009
0.164224
0.168198
0.172186
0.176454
0.181321
0.187033
0.193625
0.200951
0.209114
0.21962
0.0976183
0.098459
0.100186
0.102736
0.106061
0.110058
0.114581
0.119466
0.124564
0.129746
0.134913
0.139989
0.144926
0.149703
0.15433
0.158873
0.163469
0.16835
0.173838
0.180262
0.187802
0.196333
0.205521
0.215252
0.226535
0.0971622
0.0978415
0.0991835
0.101195
0.103879
0.107198
0.111063
0.115358
0.119954
0.124736
0.129605
0.134488
0.139339
0.144145
0.148936
0.153808
0.158946
0.16463
0.171209
0.178977
0.187994
0.19797
0.208421
0.219078
0.230506
0.0968147
0.0973816
0.0984473
0.100045
0.102212
0.104951
0.108226
0.111961
0.116059
0.120421
0.124958
0.129602
0.134314
0.139092
0.14399
0.149136
0.154754
0.161155
0.168679
0.17754
0.187652
0.198576
0.209735
0.220759
0.231844
0.0965864
0.0970346
0.0979357
0.0992082
0.100961
0.103216
0.105972
0.109193
0.112813
0.116754
0.120943
0.125321
0.12986
0.134575
0.139543
0.144921
0.150962
0.157986
0.166286
0.175966
0.186793
0.198215
0.209616
0.220574
0.230989
0.0964747
0.0968241
0.0975931
0.0986424
0.100061
0.101915
0.104224
0.106982
0.110155
0.113688
0.117527
0.121627
0.125976
0.130606
0.135617
0.141192
0.147597
0.155133
0.164022
0.174244
0.185436
0.19698
0.208268
0.218852
0.228412
0.0968109
0.0970419
0.0975877
0.0984159
0.0994013
0.100707
0.102367
0.10441
0.106846
0.109671
0.112872
0.116443
0.120409
0.124837
0.12986
0.135671
0.142502
0.150547
0.159845
0.170177
0.18106
0.191894
0.202164
0.211436
0.219168

SCALARS pressure float
LOOKUP_TABLE default
10000
10000
10000
10000
10000
10000
10000
10000
10000
10000
10000
10000
10000
10000
10000
10000
10000
10000
10000
10000
10000
10000
10000
10000
10000
10000
10000
10000
10000
10000
10000
10000
10000
10000
10000
10000
10000
10000
10000
10000
10000
10000
10000
10000
10000
10000
10000
10000
10000
10000
10000
10000
10000
10000
10000
10000
10000
10000
10000
10000
10000
10000
10000
10000
10000
10000
10000
10000
10000
10000
10000
10000
10000
10000
10000
10000
10000
10000
10000
10000
10000
10000
10000
10000
10000
10000
10000
10000
10000
10000
10000
10000
10000
10000
10000
10000
10000
10000
10000
10000
10000
10000
10000
10000
10000
10000
10000
10000
10000
10000
10000
10000
10000
10000
10000
10000
10000
10000
10000
10000
10000
10000
10000
10000
10000
10000
10000
10000
10000
10000
10000
10000
10000
10000
10000
10000
10000
10000
10000
10000
10000
10000
10000
10000
10000
10000
10000
10000
10000
10000
10000
10000
10000
10000
10000
10000
10000
10000
10000
10000
10000
10000
10000
10000
10000
10000
10000
10000
10000
10000
10000
10000
10000
10000
10000
10000
10000
10000
10000
10000
10000
10000
10000
10000
10000
10000
10000
10000
10000
10000
10000
10000
10000
10000
10000
10000
10000
10000
10000
10000
10000
10000
10000
10000
10000
10000
10000
10000
10000
10000
10000
10000
10000
10000
10000
10000
10000
10000
10000
10000
10000
10000
10000
10000
10000
10000
10000
10000
10000
10000
10000
10000
10000
10000
10000
10000
10000
10000
10000
10000
10000
10000
10000
10000
10000
10000
10000
10000
10000
10000
10000
10000
10000
10000
10000
10000
10000
10000
10000
10000
10000
10000
10000
10000
10000
10000
10000
10000
10000
10000
10000
10000
10000
10000
10000
10000
10000
10000
10000
10000
10000
10000
10000
10000
10000
10000
10000
10000
10000
10000
10000
10000
10000
10000
10000
10000
10000
10000
10000
10000
10000
10000
10000
10000
10000
10000
10000
10000
10000
10000
10000
10000
10000
10000
10000
10000
10000
10000
10000
10000
10000
10000
10000
10000
10000
10000
10000
10000
10000
10000
10000
10000
10000
10000
10000
10000
10000
10000
10000
10000
10000
10000
10000
10000
10000
10000
10000
10000
10000
10000
10000
10000
10000
10000
10000
10000
10000
10000
10000
10000
10000
10000
10000
10000
10000
10000
10000
10000
10000
10000
10000
10000
10000
10000
10000
10000
10000
10000
10000
10000
10000
10000
10000
10000
10000
10000
10000
10000
10000
10000
10000
10000
10000
10000
10000
10000
10000
10000
10000
10000
10000
10000
10000
10000
10000
10000
10000
10000
10000
10000
10000
10000
10000
10000
10000
10000
10000
10000
10000
10000
10000
10000
10000
10000
10000
16409.4
12851
11049.4
10354.6
10116.7
10038.4
10012.8
10004.3
10001.5
10000.5
10000.2
10000.1
10000
10000
10000
10000
10000
10000
10000
10000
10000
10000
10000
10000
10000
19911.7
16273.6
13226.7
11421.5
10568.5
10216.8
10081.2
10030.3
10011.3
10004.3
10001.6
10000.6
10000.2
10000.1
10000
10000
10000
10000
10000
10000
10000
10000
10000
10000
10000
21901.7
19123.3
15921.3
13276.8
11588.1
10702.3
10294.9
10120.9
10049.1
10019.9
10008.1
10003.3
10001.3
10000.6
10000.2
10000.1
10000
10000
10000
10000
10000
10000
10000
10000
10000
23053.3
21164.2
18475.9
15621.9
13256.7
11679.3
10796.1
10358.7
10157.4
10068.3
10029.5
10012.7
10005.5
10002.4
10001
10000.5
10000.2
10000.1
10000
10000
10000
10000
10000
10000
10000
23718.3
22516.8
20530.3
17995.5
15394.1
13230.4
11743.7
10871.4
10414.9
10192.4
10088
10040.1
10018.2
10008.3
10003.8
10001.7
10000.8
10000.4
10000.2
10000.1
10000
10000
10000
10000
10000
24094.9
23365.3
22016.4
20037.8
17641.8
15232
13219
11802.8
10940.5
10468.6
10227.4
10108.9
10051.8
10024.6
10011.7
10005.6
10002.6
10001.3
10000.6
10000.3
10000.1
10000.1
10000
10000
10000
24300.7
23865.2
23004
21604
19657.5
17384.6
15126.7
13229.5
11866.7
11010.2
10523.3
10264.1
10131.5
10065
10032.1
10015.8
10007.8
10003.9
10001.9
10000.9
10000.5
10000.2
10000.1
10000.1
10000
24401.5
24141.9
23602.7
22678.8
21263.8
19365.9
17202
15068.9
13262.8
11939.9
11084.3
10581.1
10303.6
10156.4
10080
10040.8
10020.8
10010.6
10005.4
10002.8
10001.4
10000.7
10000.4
10000.2
10000.1
24427.6
24271.4
23938.8
23347.4
22380.7
20976.1
19146
17075.9
15048.9
13316.8
12023.4
11164.4
10643.4
10346.6
10184.1
10097
10051
10026.7
10014
10007.3
10003.9
10002
10001.1
10000.6
10000.4
24395
24298.6
24093.2
23721.8
23088.7
22107.5
20728.1
18974.9
16990.8
15057.1
13387.3
12116.5
11250.8
10710.6
10393.6
10214.8
10116.3
10062.7
10033.7
10018.1
10009.8
10005.3
10002.9
10001.7
10001.2
24313.6
24251
24121.5
23889.2
23484.8
22830.2
21852.5
20505.8
18829.7
16940.5
15084.3
13469.4
12216.9
11342.9
10782.5
10444.6
10248.7
10137.9
10076.1
10041.9
10023.1
10012.8
10007.3
10004.4
10003.2
24191.4
24147.6
24062.2
23914.8
23658.6
23233.6
22571.4
21604
20301.7
18701.2
16911.7
15122.8
13558.3
12322.1
11439.3
10858.7
10499.3
10285.7
10162
10091.4
10051.5
10029.2
10017
10010.6
10007.8
24036.5
24003.1
23942.7
23845.7
23681.8
23408.7
22972.2
22307.9
21361.7
20112
18582.8
16887.6
15171.6
13649.4
12429.3
11538.4
10938.1
10557.3
10325.7
10188.6
10108.8
10063.1
10037.5
10023.9
10018
23857.7
23829.9
23783.5
23715.9
23608
23431.3
23146.6
22702.5
22044.9
21128.6
19927.6
18473.6
16858.7
15228.4
13739.8
12536.5
11638.8
11020
10618.4
10368.8
10218.2
10129.5
10078.6
10051.1
10039.1
23663.9
23639.4
23600.9
23550.1
23475.5
23358.5
23171.8
22878.1
22432.5
21788.1
20899.9
19751.1
18369.1
16831
15277.3
13834.7
12641.5
11739.6
11104.1
10682.9
10416.2
10253.2
10157.2
10104.5
10081.2
23463.6
23441.4
23407.5
23366.5
23311.6
23230.7
23105.8
22910.6
22611.7
22169.2
21537.7
20680.7
19584.1
18267
16807.5
15314.8
13931
12746.5
11840.8
11191.3
10753
10472
10300.8
10204.6
10161.4
23264.4
23244.1
23213.3
23178.3
23135
23076
22989.2
22857.1
22655.8
22354.7
21915.7
21299.7
20474.9
19425.3
18173.6
16781.9
15355.4
14013.7
12861.6
11945.9
11286.7
10837.3
10550.4
10384.1
10308.2
16105.5
18629.4
20178.7
21129.4
21726.1
22098.1
22315.9
22415.9
22413.2
22306.5
22080.7
21710.8
21167.5
20422
19462.5
18303.3
16996.4
15633.3
14318.7
13152.3
12213.1
11510
11027
10731.5
10597.3
12904.3
15161.1
17085
18541
19626.6
20429.4
21013.4
21422.9
21686.5
21819.6
21824.8
21693.7
21409
20946.9
20285.7
19415.3
18346.7
17127.9
15831.5
14561.2
13422.4
12481.6
11777.9
11318.2
11106.1
11302.1
12928
14667.3
16196.3
17479.1
18532.1
19381.5
20052.8
20566.7
20937.8
21173.8
21274.2
21231.3
21029.4
20649.3
20073.5
19292.5
18319.9
17191.6
15983.5
14791.6
13711.7
12832.3
12217.2
11929.1
10415.6
11518.2
12918.7
14306
15583.5
16717.8
17701.6
18538
19233.9
19795.9
20228.5
20532.4
20703.4
20731.9
20603.4
20301.3
19809.7
19123.6
18253.4
17241.3
16156.5
15091.6
14157.9
13464.3
13143.4
9880.74
10615.7
11683.8
12853.7
14019.2
15123.6
16137.8
17048.2
17849
18538.4
19115.3
19578.2
19923.2
20143.5
20228.6
20165
19937.8
19536.1
18958
18223.3
17375.6
16488.6
15667.2
15032.9
14767.2
9534
10023.4
10814.9
11760.3
12770.3
13783.6
14760.5
15676.9
16518.3
17275.8
17943.7
18517.2
18991.7
19361.1
19617.6
19751.4
19751.6
19608.9
19320.5
18897.8
18370.7
17794.3
17248.8
16830.2
16726.9
9295.44
9623.12
10200.1
10943.5
11789.9
12684.2
13585
14463.1
15298.4
16077.6
16791.1
17431.8
17993.7
18471.3
18858.4
19149
19337.2
19419.8
19400.3
19294
19129.1
18947.7
18796.3
18715.6
18859.1
9122.98
9344.11
9760.69
10334.3
11026.7
11794.9
12600.7
13414.2
14212.8
14980.4
15705
16377.8
16992.1
17542.3
18024.3
18435.4
18775.7
19050.6
19274.4
19472.9
19680.3
19928.1
20222
20531.1
20951.9
8993.11
9143.62
9442.6
9879.09
10435.1
11081.4
11786.3
12521.8
13265.3
13999.2
14710.5
15389.3
16028.5
16623
17170.7
17672.6
18135.4
18574.5
19017.2
19502
20068.7
20734.1
21456.7
22133.4
22804.8
8892.06
8995.38
9209.1
9537.64
9977.63
10512.3
11118.1
11770.8
12449.3
13136.2
13817.9
14484.3
15128.2
15745.7
16336.6
16906.5
17469.3
18050.8
18690.8
19438.5
20332.8
21366.7
22449.1
23418.2
24275.4
8811.7
8883.17
9035.53
9280.65
9624.55
10060.7
10573.7
11144.4
11754.1
12386.5
13028.5
13670.2
14304.8
14929.9
15548.1
16169.6
16815.9
17522.8
18340.3
19322
20496
21823.2
23167.7
24331.2
25296.6
8747.34
8797.21
8905.52
9087.09
9353.08
9704.64
10133.6
10626.2
11167.3
11742.2
12338.9
12948.2
13564.4
14186.9
14821.3
15483.1
16201
17019.2
17993.7
19173.8
20567.3
22100.3
23603.2
24865.5
25868.5
8696.72
8731.83
8808.62
8942.26
9146.15
9426.54
9781.27
10201.9
10677
11194.3
11743.3
12316
12908.3
13521.5
14165
14859.4
15639.8
16556
17663.9
19000.5
20547.3
22198.8
23767.5
25050.5
26036.7
8659.55
8683.76
8738.74
8836.29
8991.38
9212.92
9503.42
9859.15
10272.4
10733.9
11234.9
11769.3
12334.7
12935
13583.3
14304.7
15139.3
16138.8
17352.6
18799.8
20434.1
22127.3
23689
24936.7
25870.4
8636.39
8652.53
8692.11
8763.06
8880.04
9053.65
9289.43
9587.61
9944.15
10352.8
10807.2
11303.2
11840.6
12426.1
13076.1
13819.9
14699.8
15765.5
17055
18566.1
20229.1