# vtk DataFile Version 3.0
2D CFD data
ASCII
DATASET STRUCTURED_GRID
DIMENSIONS 50 25 1
POINTS 1250 float
0.294118 0.15 0.0
0.294118 0.45 0.0
0.294118 0.75 0.0
0.294118 1.05 0.0
0.294118 1.35 0.0
0.294118 1.65 0.0
0.294118 1.95 0.0
0.294118 2.25 0.0
0.294118 2.55 0.0
0.294118 2.85 0.0
0.294118 3.15 0.0
0.294118 3.45 0.0
0.294118 3.75 0.0
0.294118 4.05 0.0
0.294118 4.35 0.0
0.294118 4.65 0.0
0.294118 4.95 0.0
0.294118 5.25 0.0
0.294118 5.55 0.0
0.294118 5.85 0.0
0.294118 6.15 0.0
0.294118 6.45 0.0
0.294118 6.75 0.0
0.294118 7.05 0.0
0.294118 7.35 0.0
0.882353 0.15 0.0
0.882353 0.45 0.0
0.882353 0.75 0.0
0.882353 1.05 0.0
0.882353 1.35 0.0
0.882353 1.65 0.0
0.882353 1.95 0.0
0.882353 2.25 0.0
0.882353 2.55 0.0
0.882353 2.85 0.0
0.882353 3.15 0.0
0.882353 3.45 0.0
0.882353 3.75 0.0
0.882353 4.05 0.0
0.882353 4.35 0.0
0.882353 4.65 0.0
0.882353 4.95 0.0
0.882353 5.25 0.0
0.882353 5.55 0.0
0.882353 5.85 0.0
0.882353 6.15 0.0
0.882353 6.45 0.0
0.882353 6.75 0.0
0.882353 7.05 0.0
0.882353 7.35 0.0
1.47059 0.15 0.0
1.47059 0.45 0.0
1.47059 0.75 0.0
1.47059 1.05 0.0
1.47059 1.35 0.0
1.47059 1.65 0.0
1.47059 1.95 0.0
1.47059 2.25 0.0
1.47059 2.55 0.0
1.47059 2.85 0.0
1.47059 3.15 0.0
1.47059 3.45 0.0
1.47059 3.75 0.0
1.47059 4.05 0.0
1.47059 4.35 0.0
1.47059 4.65 0.0
1.47059 4.95 0.0
1.47059 5.25 0.0
1.47059 5.55 0.0
1.47059 5.85 0.0
1.47059 6.15 0.0
1.47059 6.45 0.0
1.47059 6.75 0.0
1.47059 7.05 0.0
1.47059 7.35 0.0
2.05882 0.15 0.0
2.05882 0.45 0.0
2.05882 0.75 0.0
2.05882 1.05 0.0
2.05882 1.35 0.0
2.05882 1.65 0.0
2.05882 1.95 0.0
2.05882 2.25 0.0
2.05882 2.55 0.0
2.05882 2.85 0.0
2.05882 3.15 0.0
2.05882 3.45 0.0
2.05882 3.75 0.0
2.05882 4.05 0.0
2.05882 4.35 0.0
2.05882 4.65 0.0
2.05882 4.95 0.0
2.05882 5.25 0.0
2.05882 5.55 0.0
2.05882 5.85 0.0
2.05882 6.15 0.0
2.05882 6.45 0.0
2.05882 6.75 0.0
2.05882 7.05 0.0
2.05882 7.35 0.0
2.64706 0.15 0.0
2.64706 0.45 0.0
2.64706 0.75 0.0
2.64706 1.05 0.0
2.64706 1.35 0.0
2.64706 1.65 0.0
2.64706 1.95 0.0
2.64706 2.25 0.0
2.64706 2.55 0.0
2.64706 2.85 0.0
2.64706 3.15 0.0
2.64706 3.45 0.0
2.64706 3.75 0.0
2.64706 4.05 0.0
2.64706 4.35 0.0
2.64706 4.65 0.0
2.64706 4.95 0.0
2.64706 5.25 0.0
2.64706 5.55 0.0
2.64706 5.85 0.0
2.64706 6.15 0.0
2.64706 6.45 0.0
2.64706 6.75 0.0
2.64706 7.05 0.0
2.64706 7.35 0.0
3.23529 0.15 0.0
3.23529 0.45 0.0
3.23529 0.75 0.0
3.23529 1.05 0.0
3.23529 1.35 0.0
3.23529 1.65 0.0
3.23529 1.95 0.0
3.23529 2.25 0.0
3.23529 2.55 0.0
3.23529 2.85 0.0
3.23529 3.15 0.0
3.23529 3.45 0.0
3.23529 3.75 0.0
3.23529 4.05 0.0
3.23529 4.35 0.0
3.23529 4.65 0.0
3.23529 4.95 0.0
3.23529 5.25 0.0
3.23529 5.55 0.0
3.23529 5.85 0.0
3.23529 6.15 0.0
3.23529 6.45 0.0
3.23529 6.75 0.0
3.23529 7.05 0.0
3.23529 7.35 0.0
3.82353 0.15 0.0
3.82353 0.45 0.0
3.82353 0.75 0.0
3.82353 1.05 0.0
3.82353 1.35 0.0
3.82353 1.65 0.0
3.82353 1.95 0.0
3.82353 2.25 0.0
3.82353 2.55 0.0
3.82353 2.85 0.0
3.82353 3.15 0.0
3.82353 3.45 0.0
3.82353 3.75 0.0
3.82353 4.05 0.0
3.82353 4.35 0.0
3.82353 4.65 0.0
3.82353 4.95 0.0
3.82353 5.25 0.0
3.82353 5.55 0.0
3.82353 5.85 0.0
3.82353 6.15 0.0
3.82353 6.45 0.0
3.82353 6.75 0.0
3.82353 7.05 0.0
3.82353 7.35 0.0
4.41176 0.15 0.0
4.41176 0.45 0.0
4.41176 0.75 0.0
4.41176 1.05 0.0
4.41176 1.35 0.0
4.41176 1.65 0.0
4.41176 1.95 0.0
4.41176 2.25 0.0
4.41176 2.55 0.0
4.41176 2.85 0.0
4.41176 3.15 0.0
4.41176 3.45 0.0
4.41176 3.75 0.0
4.41176 4.05 0.0
4.41176 4.35 0.0
4.41176 4.65 0.0
4.41176 4.95 0.0
4.41176 5.25 0.0
4.41176 5.55 0.0
4.41176 5.85 0.0
4.41176 6.15 0.0
4.41176 6.45 0.0
4.41176 6.75 0.0
4.41176 7.05 0.0
4.41176 7.35 0.0
5 0.15 0.0
5 0.45 0.0
5 0.75 0.0
5 1.05 0.0
5 1.35 0.0
5 1.65 0.0
5 1.95 0.0
5 2.25 0.0
5 2.55 0.0
5 2.85 0.0
5 3.15 0.0
5 3.45 0.0
5 3.75 0.0
5 4.05 0.0
5 4.35 0.0
5 4.65 0.0
5 4.95 0.0
5 5.25 0.0
5 5.55 0.0
5 5.85 0.0
5 6.15 0.0
5 6.45 0.0
5 6.75 0.0
5 7.05 0.0
5 7.35 0.0
5.58824 0.15 0.0
5.58824 0.45 0.0
5.58824 0.75 0.0
5.58824 1.05 0.0
5.58824 1.35 0.0
5.58824 1.65 0.0
5.58824 1.95 0.0
5.58824 2.25 0.0
5.58824 2.55 0.0
5.58824 2.85 0.0
5.58824 3.15 0.0
5.58824 3.45 0.0
5.58824 3.75 0.0
5.58824 4.05 0.0
5.58824 4.35 0.0
5.58824 4.65 0.0
5.58824 4.95 0.0
5.58824 5.25 0.0
5.58824 5.55 0.0
5.58824 5.85 0.0
5.58824 6.15 0.0
5.58824 6.45 0.0
5.58824 6.75 0.0
5.58824 7.05 0.0
5.58824 7.35 0.0
6.17647 0.15 0.0
6.17647 0.45 0.0
6.17647 0.75 0.0
6.17647 1.05 0.0
6.17647 1.35 0.0
6.17647 1.65 0.0
6.17647 1.95 0.0
6.17647 2.25 0.0
6.17647 2.55 0.0
6.17647 2.85 0.0
6.17647 3.15 0.0
6.17647 3.45 0.0
6.17647 3.75 0.0
6.17647 4.05 0.0
6.17647 4.35 0.0
6.17647 4.65 0.0
6.17647 4.95 0.0
6.17647 5.25 0.0
6.17647 5.55 0.0
6.17647 5.85 0.0
6.17647 6.15 0.0
6.17647 6.45 0.0
6.17647 6.75 0.0
6.17647 7.05 0.0
6.17647 7.35 0.0
6.76471 0.15 0.0
6.76471 0.45 0.0
6.76471 0.75 0.0
6.76471 1.05 0.0
6.76471 1.35 0.0
6.76471 1.65 0.0
6.76471 1.95 0.0
6.76471 2.25 0.0
6.76471 2.55 0.0
6.76471 2.85 0.0
6.76471 3.15 0.0
6.76471 3.45 0.0
6.76471 3.75 0.0
6.76471 4.05 0.0
6.76471 4.35 0.0
6.76471 4.65 0.0
6.76471 4.95 0.0
6.76471 5.25 0.0
6.76471 5.55 0.0
6.76471 5.85 0.0
6.76471 6.15 0.0
6.76471 6.45 0.0
6.76471 6.75 0.0
6.76471 7.05 0.0
6.76471 7.35 0.0
7.35294 0.15 0.0
7.35294 0.45 0.0
7.35294 0.75 0.0
7.35294 1.05 0.0
7.35294 1.35 0.0
7.35294 1.65 0.0
7.35294 1.95 0.0
7.35294 2.25 0.0
7.35294 2.55 0.0
7.35294 2.85 0.0
7.35294 3.15 0.0
7.35294 3.45 0.0
7.35294 3.75 0.0
7.35294 4.05 0.0
7.35294 4.35 0.0
7.35294 4.65 0.0
7.35294 4.95 0.0
7.35294 5.25 0.0
7.35294 5.55 0.0
7.35294 5.85 0.0
7.35294 6.15 0.0
7.35294 6.45 0.0
7.35294 6.75 0.0
7.35294 7.05 0.0
7.35294 7.35 0.0
7.94118 0.15 0.0
7.94118 0.45 0.0
7.94118 0.75 0.0
7.94118 1.05 0.0
7.94118 1.35 0.0
7.94118 1.65 0.0
7.94118 1.95 0.0
7.94118 2.25 0.0
7.94118 2.55 0.0
7.94118 2.85 0.0
7.94118 3.15 0.0
7.94118 3.45 0.0
7.94118 3.75 0.0
7.94118 4.05 0.0
7.94118 4.35 0.0
7.94118 4.65 0.0
7.94118 4.95 0.0
7.94118 5.25 0.0
7.94118 5.55 0.0
7.94118 5.85 0.0
7.94118 6.15 0.0
7.94118 6.45 0.0
7.94118 6.75 0.0
7.94118 7.05 0.0
7.94118 7.35 0.0
8.52941 0.15 0.0
8.52941 0.45 0.0
8.52941 0.75 0.0
8.52941 1.05 0.0
8.52941 1.35 0.0
8.52941 1.65 0.0
8.52941 1.95 0.0
8.52941 2.25 0.0
8.52941 2.55 0.0
8.52941 2.85 0.0
8.52941 3.15 0.0
8.52941 3.45 0.0
8.52941 3.75 0.0
8.52941 4.05 0.0
8.52941 4.35 0.0
8.52941 4.65 0.0
8.52941 4.95 0.0
8.52941 5.25 0.0
8.52941 5.55 0.0
8.52941 5.85 0.0
8.52941 6.15 0.0
8.52941 6.45 0.0
8.52941 6.75 0.0
8.52941 7.05 0.0
8.52941 7.35 0.0
9.11765 0.15 0.0
9.11765 0.45 0.0
9.11765 0.75 0.0
9.11765 1.05 0.0
9.11765 1.35 0.0
9.11765 1.65 0.0
9.11765 1.95 0.0
9.11765 2.25 0.0
9.11765 2.55 0.0
9.11765 2.85 0.0
9.11765 3.15 0.0
9.11765 3.45 0.0
9.11765 3.75 0.0
9.11765 4.05 0.0
9.11765 4.35 0.0
9.11765 4.65 0.0
9.11765 4.95 0.0
9.11765 5.25 0.0
9.11765 5.55 0.0
9.11765 5.85 0.0
9.11765 6.15 0.0
9.11765 6.45 0.0
9.11765 6.75 0.0
9.11765 7.05 0.0
9.11765 7.35 0.0
9.70588 0.15 0.0
9.70588 0.45 0.0
9.70588 0.75 0.0
9.70588 1.05 0.0
9.70588 1.35 0.0
9.70588 1.65 0.0
9.70588 1.95 0.0
9.70588 2.25 0.0
9.70588 2.55 0.0
9.70588 2.85 0.0
9.70588 3.15 0.0
9.70588 3.45 0.0
9.70588 3.75 0.0
9.70588 4.05 0.0
9.70588 4.35 0.0
9.70588 4.65 0.0
9.70588 4.95 0.0
9.70588 5.25 0.0
9.70588 5.55 0.0
9.70588 5.85 0.0
9.70588 6.15 0.0
9.70588 6.45 0.0
9.70588 6.75 0.0
9.70588 7.05 0.0
9.70588 7.35 0.0
10.2941 0.227232 0.0
10.2941 0.52408 0.0
10.2941 0.820928 0.0
10.2941 1.11778 0.0
10.2941 1.41462 0.0
10.2941 1.71147 0.0
10.2941 2.00832 0.0
10.2941 2.30517 0.0
10.2941 2.60201 0.0
10.2941 2.89886 0.0
10.2941 3.19571 0.0
10.2941 3.49256 0.0
10.2941 3.7894 0.0
10.2941 4.08625 0.0
10.2941 4.3831 0.0
10.2941 4.67995 0.0
10.2941 4.97679 0.0
10.2941 5.27364 0.0
10.2941 5.57049 0.0
10.2941 5.86734 0.0
10.2941 6.16419 0.0
10.2941 6.46103 0.0
10.2941 6.75788 0.0
10.2941 7.05473 0.0
10.2941 7.35158 0.0
10.8824 0.381697 0.0
10.8824 0.67224 0.0
10.8824 0.962783 0.0
10.8824 1.25333 0.0
10.8824 1.54387 0.0
10.8824 1.83441 0.0
10.8824 2.12496 0.0
10.8824 2.4155 0.0
10.8824 2.70604 0.0
10.8824 2.99658 0.0
10.8824 3.28713 0.0
10.8824 3.57767 0.0
10.8824 3.86821 0.0
10.8824 4.15876 0.0
10.8824 4.4493 0.0
10.8824 4.73984 0.0
10.8824 5.03038 0.0
10.8824 5.32093 0.0
10.8824 5.61147 0.0
10.8824 5.90201 0.0
10.8824 6.19256 0.0
10.8824 6.4831 0.0
10.8824 6.77364 0.0
10.8824 7.06419 0.0
10.8824 7.35473 0.0
11.4706 0.536162 0.0
11.4706 0.8204 0.0
11.4706 1.10464 0.0
11.4706 1.38888 0.0
11.4706 1.67312 0.0
11.4706 1.95735 0.0
11.4706 2.24159 0.0
11.4706 2.52583 0.0
11.4706 2.81007 0.0
11.4706 3.09431 0.0
11.4706 3.37854 0.0
11.4706 3.66278 0.0
11.4706 3.94702 0.0
11.4706 4.23126 0.0
11.4706 4.5155 0.0
11.4706 4.79974 0.0
11.4706 5.08397 0.0
11.4706 5.36821 0.0
11.4706 5.65245 0.0
11.4706 5.93669 0.0
11.4706 6.22093 0.0
11.4706 6.50517 0.0
11.4706 6.7894 0.0
11.4706 7.07364 0.0
11.4706 7.35788 0.0
12.0588 0.690627 0.0
12.0588 0.96856 0.0
12.0588 1.24649 0.0
12.0588 1.52443 0.0
12.0588 1.80236 0.0
12.0588 2.08029 0.0
12.0588 2.35823 0.0
12.0588 2.63616 0.0
12.0588 2.9141 0.0
12.0588 3.19203 0.0
12.0588 3.46996 0.0
12.0588 3.7479 0.0
12.0588 4.02583 0.0
12.0588 4.30376 0.0
12.0588 4.5817 0.0
12.0588 4.85963 0.0
12.0588 5.13756 0.0
12.0588 5.4155 0.0
12.0588 5.69343 0.0
12.0588 5.97137 0.0
12.0588 6.2493 0.0
12.0588 6.52723 0.0
12.0588 6.80517 0.0
12.0588 7.0831 0.0
12.0588 7.36103 0.0
12.6471 0.845092 0.0
12.6471 1.11672 0.0
12.6471 1.38835 0.0
12.6471 1.65998 0.0
12.6471 1.93161 0.0
12.6471 2.20324 0.0
12.6471 2.47487 0.0
12.6471 2.74649 0.0
12.6471 3.01812 0.0
12.6471 3.28975 0.0
12.6471 3.56138 0.0
12.6471 3.83301 0.0
12.6471 4.10464 0.0
12.6471 4.37627 0.0
12.6471 4.6479 0.0
12.6471 4.91953 0.0
12.6471 5.19115 0.0
12.6471 5.46278 0.0
12.6471 5.73441 0.0
12.6471 6.00604 0.0
12.6471 6.27767 0.0
12.6471 6.5493 0.0
12.6471 6.82093 0.0
12.6471 7.09256 0.0
12.6471 7.36419 0.0
13.2353 0.999557 0.0
13.2353 1.26488 0.0
13.2353 1.53021 0.0
13.2353 1.79553 0.0
13.2353 2.06085 0.0
13.2353 2.32618 0.0
13.2353 2.5915 0.0
13.2353 2.85683 0.0
13.2353 3.12215 0.0
13.2353 3.38747 0.0
13.2353 3.6528 0.0
13.2353 3.91812 0.0
13.2353 4.18345 0.0
[...]
POINT_DATA 1250
SCALARS density float
LOOKUP_TABLE default
0.116144
0.116144
0.116144
0.116144
0.116144
0.116144
0.116144
0.116144
0.116144
0.116144
0.116144
0.116144
0.116144
0.116144
0.116144
0.116144
0.116144
0.116144
0.116144
0.116144
0.116144
0.116144
0.116144
0.116144
0.116144
0.116144
0.116144
0.116144
0.116144
0.116144
0.116144
0.116144
0.116144
0.116144
0.116144
0.116144
0.116144
0.116144
0.116144
0.116144
0.116144
0.116144
0.116144
0.116144
0.116144
0.116144
0.116144
0.116144
0.116144
0.116144
0.116144
0.116144
0.116144
0.116144
0.116144
0.116144
0.116144
0.116144
0.116144
0.116144
0.116144
0.116144
0.116144
0.116144
0.116144
0.116144
0.116144
0.116144
0.116144
0.116144
0.116144
0.116144
0.116144
0.116144
0.116144
0.116144
0.116144
0.116144
0.116144
0.116144
0.116144
0.116144
0.116144
0.116144
0.116144
0.116144
0.116144
0.116144
0.116144
0.116144
0.116144
0.116144
0.116144
0.116144
0.116144
0.116144
0.116144
0.116144
0.116144
0.116144
0.116144
0.116144
0.116144
0.116144
0.116144
0.116144
0.116144
0.116144
0.116144
0.116144
0.116144
0.116144
0.116144
0.116144
0.116144
0.116144
0.116144
0.116144
0.116144
0.116144
0.116144
0.116144
0.116144
0.116144
0.116144
0.116144
0.116144
0.116144
0.116144
0.116144
0.116144
0.116144
0.116144
0.116144
0.116144
0.116144
0.116144
0.116144
0.116144
0.116144
0.116144
0.116144
0.116144
0.116144
0.116144
0.116144
0.116144
0.116144
0.116144
0.116144
0.116144
0.116144
0.116144
0.116144
0.116144
0.116144
0.116144
0.116144
0.116144
0.116144
0.116144
0.116144
0.116144
0.116144
0.116144
0.116144
0.116144
0.116144
0.116144
0.116144
0.116144
0.116144
0.116144
0.116144
0.116144
0.116144
0.116144
0.116144
0.116144
0.116144
0.116144
0.116144
0.116144
0.116144
0.116144
0.116144
0.116144
0.116144
0.116144
0.116144
0.116144
0.116144
0.116144
0.116144
0.116144
0.116144
0.116144
0.116144
0.116144
0.116144
0.116144
0.116144
0.116144
0.116144
0.116144
0.116144
0.116144
0.116144
0.116144
0.116144
0.116144
0.116144
0.116144
0.116144
0.116144
0.116144
0.116144
0.116144
0.116144
0.116144
0.116144
0.116144
0.116144
0.116144
0.116144
0.116144
0.116144
0.116144
0.116144
0.116144
0.116144
0.116144
0.116144
0.116144
0.116144
0.116144
0.116144
0.116144
0.116144
0.116144
0.116144
0.116144
0.116144
0.116144
0.116144
0.116144
0.116144
0.116144
0.116144
0.116144
0.116144
0.116144
0.116144
0.116144
0.116144
0.116144
0.116144
0.116144
0.116144
0.116144
0.116144
0.116144
0.116144
0.116144
0.116144
0.116144
0.116144
0.116144
0.116144
0.116144
0.116144
0.116144
0.116144
0.116144
0.116144
0.116144
0.116144
0.116144
0.116144
0.116144
0.116144
0.116144
0.116144
0.116144
0.116144
0.116144
0.116144
0.116144
0.116144
0.116144
0.116144
0.116144
0.116144
0.116144
0.116144
0.116144
0.116144
0.116144
0.116144
0.116144
0.116144
0.116144
0.116144
0.116144
0.116144
0.116144
0.116144
0.116144
0.116144
0.116144
0.116144
0.116144
0.116144
0.116144
0.116144
0.116144
0.116144
0.116144
0.116144
0.116144
0.116144
0.116144
0.116144
0.116144
0.116144
0.116144
0.116144
0.116144
0.116144
0.116144
0.116144
0.116144
0.116144
0.116144
0.116144
0.116144
0.116144
0.116144
0.116144
0.116144
0.116144
0.116144
0.116144
0.116144
0.116144
0.116144
0.116144
0.116144
0.116144
0.116144
0.116144
0.116144
0.116144
0.116144
0.116144
0.116144
0.116144
0.116144
0.116144
0.116144
0.116144
0.116144
0.116144
0.116144
0.116144
0.116144
0.116144
0.116144
0.116144
0.116144
0.116144
0.116144
0.116144
0.116144
0.116144
0.116144
0.116144
0.116144
0.116144
0.116144
0.116144
0.116144
0.116144
0.116144
0.116144
0.116144
0.116144
0.116144
0.116144
0.116144
0.116144
0.116144
0.116144
0.116144
0.116144
0.116144
0.116144
0.116144
0.116144
0.116144
0.116144
0.116144
0.116144
0.116144
0.116144
0.116144
0.116144
0.116144
0.116144
0.116144
0.116144
0.116144
0.116144
0.116144
0.116144
0.116144
0.116144
0.116144
0.116144
0.116144
0.116144
0.116144
0.116144
0.116144
0.116144
0.165742
0.141086
0.127978
0.121326
0.118274
0.116993
0.11648
0.116278
0.116198
0.116166
0.116153
0.116148
0.116146
0.116145
0.116144
0.116144
0.116144
0.116144
0.116144
0.116144
0.116144
0.116144
0.116144
0.116144
0.116144
0.191778
0.167609
0.148338
0.134396
0.125554
0.120647
0.118199
0.11706
0.116549
0.116323
0.116224
0.11618
0.11616
0.116151
0.116147
0.116146
0.116145
0.116144
0.116144
0.116144
0.116144
0.116144
0.116144
0.116144
0.116144
0.204917
0.187505
0.169653
0.152943
0.139141
0.129276
0.123106
0.119644
0.117848
0.116961
0.116533
0.11633
0.116233
0.116187
0.116165
0.116154
0.116149
0.116146
0.116145
0.116145
0.116144
0.116144
0.116144
0.116144
0.116144
0.211082
0.200394
0.186904
0.17199
0.156831
0.143334
0.132873
0.125729
0.121344
0.118864
0.117537
0.11685
0.116501
0.116324
0.116235
0.11619
0.116168
0.116156
0.11615
0.116147
0.116146
0.116145
0.116145
0.116144
0.116144
0.213428
0.207654
0.199342
0.187788
0.17459
0.160583
0.147441
0.136591
0.128632
0.123366
0.120159
0.118321
0.117308
0.116762
0.116472
0.116318
0.116237
0.116193
0.116171
0.116158
0.116152
0.116148
0.116146
0.116146
0.116145
0.214274
0.211009
0.206026
0.199426
0.190126
0.177593
0.164463
0.151703
0.140598
0.131933
0.125806
0.121817
0.119381
0.117959
0.117152
0.116702
0.116453
0.116315
0.116239
0.116197
0.116174
0.116161
0.116154
0.11615
0.116149
0.214628
0.212731
0.209735
0.205691
0.199811
0.192148
0.18173
0.168718
0.156273
0.145018
0.135743
0.128772
0.123942
0.120811
0.11888
0.117728
0.117055
0.116667
0.116445
0.116317
0.116244
0.116203
0.11618
0.116168
0.116161
0.214747
0.2136
0.211774
0.209347
0.205843
0.200963
0.193872
0.185023
0.174264
0.161381
0.149957
0.140161
0.132382
0.126664
0.122735
0.120175
0.118572
0.117593
0.117006
0.116657
0.116451
0.11633
0.116261
0.116223
0.116203
0.214757
0.214028
0.21288
0.211417
0.209387
0.206484
0.202091
0.196097
0.188106
0.178378
0.168013
0.155788
0.145324
0.136762
0.13013
0.125306
0.121988
0.119803
0.11841
0.11754
0.117006
0.116683
0.116493
0.116387
0.11633
0.214719
0.214232
0.213479
0.212571
0.2114
0.209746
0.207199
0.2035
0.198226
0.191262
0.18285
0.172554
0.162959
0.152092
0.14216
0.134515
0.128711
0.124505
0.121593
0.11965
0.118392
0.117599
0.117116
0.116839
0.116687
0.214664
0.214323
0.213806
0.213216
0.212524
0.211603
0.210195
0.208068
0.204877
0.200385
0.194467
0.186801
0.178438
0.168487
0.158641
0.149619
0.140482
0.13325
0.127984
0.124192
0.121557
0.119798
0.118677
0.118011
0.117633
0.214606
0.214358
0.213985
0.21358
0.213152
0.212637
0.211887
0.210732
0.20893
0.206258
0.202509
0.197399
0.191207
0.183406
0.174753
0.165668
0.155953
0.147238
0.140029
0.133515
0.128155
0.124631
0.122299
0.120855
0.119986
0.214552
0.214366
0.214087
0.213791
0.213508
0.213212
0.212822
0.212227
0.211272
0.20979
0.207601
0.204485
0.200421
0.195037
0.188534
0.181003
0.172374
0.163611
0.155243
0.147143
0.139923
0.134346
0.130415
0.127661
0.126155
0.214506
0.214362
0.214147
0.213922
0.21372
0.21354
0.21334
0.213053
0.212585
0.211824
0.210643
0.208892
0.206477
0.20314
0.198851
0.193524
0.18704
0.179821
0.172181
0.164195
0.156444
0.149731
0.144464
0.140792
0.139549
0.21447
0.214359
0.21419
0.214014
0.213862
0.213746
0.213647
0.213529
0.213335
0.212998
0.21244
0.211568
0.210301
0.208482
0.20603
0.202833
0.198765
0.193957
0.188524
0.182516
0.176321
0.170585
0.165879
0.162816
0.16292
0.214453
0.214368
0.214237
0.2141
0.213988
0.213917
0.213883
0.21387
0.213849
0.213785
0.213637
0.213362
0.212917
0.212229
0.211255
0.209935
0.208211
0.206138
0.203771
0.201134
0.198425
0.196018
0.194346
0.194078
0.196907
0.214477
0.214418
0.214325
0.21423
0.214165
0.214147
0.214186
0.21428
0.214424
0.21461
0.214834
0.215094
0.215401
0.21576
0.216199
0.21675
0.217453
0.218397
0.219645
0.2212
0.223082
0.225355
0.228148
0.231863
0.237743
0.149224
0.168384
0.181824
0.190794
0.197001
0.201459
0.204781
0.207356
0.209446
0.211239
0.212888
0.214526
0.216288
0.21831
0.220746
0.223749
0.227461
0.231993
0.237364
0.24345
0.250024
0.256846
0.263774
0.27092
0.278838
0.127071
0.140675
0.154614
0.166179
0.175544
0.183154
0.189422
0.194694
0.199264
0.203387
0.207303
0.21125
0.21547
0.220211
0.225706
0.232143
0.23962
0.248104
0.257396
0.267138
0.276909
0.286367
0.295351
0.303865
0.311903
0.118308
0.126327
0.137048
0.147568
0.157235
0.165941
0.173777
0.180925
0.187606
0.194069
0.200585
0.207433
0.214886
0.223176
0.232449
0.242718
0.253831
0.26548
0.27724
0.288653
0.299355
0.309171
0.318109
0.326161
0.332957
0.114697
0.119328
0.12684
0.135317
0.14404
0.15269
0.161183
0.169584
0.178054
0.18681
0.196088
0.206103
0.216997
0.228795
0.241368
0.254434
0.267593
0.280399
0.292438
0.30342
0.313232
0.32194
0.329678
0.336384
0.341465
0.11373
0.116587
0.121838
0.128518
0.136163
0.144504
0.15343
0.162956
0.173171
0.18419
0.19609
0.208862
0.22237
0.236346
0.250415
0.264152
0.277147
0.289077
0.299749
0.309124
0.317305
0.324478
0.330763
0.335993
0.339463
0.114962
0.117094
0.121099
0.126705
0.133738
0.142066
0.151599
0.162285
0.174067
0.186847
0.200441
0.214575
0.228899
0.243058
0.256861
0.269025
0.280028
0.289971
0.298715
0.306329
0.312967
0.31879
0.323851
0.327966
0.330731
0.119679
0.121224
0.124755
0.130082
0.137135
0.145816
0.155979
0.167424
0.179892
0.19307
0.206602
0.220117
0.233266
0.245756
0.257366
0.267565
0.27658
0.28458
0.291614
0.297781
0.303209
0.307996
0.312146
0.315518
0.31801
0.129659
0.130666
0.133986
0.139224
0.146227
0.154824
0.164769
0.175747
0.187398
0.199351
0.211257
0.222812
0.233776
0.243969
0.253261
0.26146
0.268704
0.275139
0.280851
0.285925
0.290445
0.294458
0.297947
0.300828
0.303231
0.146564
0.146632
0.149255
0.153725
0.159739
0.167059
0.175418
0.184511
0.194018
0.203634
0.2131
0.222206
0.230799
0.238769
0.246041
0.252546
0.258364
0.263592
0.2683
0.272542
0.276363
0.279781
0.282778
0.285323
0.2877
0.170286
0.168829
0.169785
0.172279
0.175961
0.180639
0.186151
0.192308
0.198896
0.205699
0.212521
0.219198
0.225603
0.231639
0.237237
0.242356
0.247026
0.251296
0.255203
0.258774
0.262028
0.264967
0.267579
0.269875
0.272238
0.197908
0.194786
0.193468
0.193187
0.193671
0.194873
0.196815
0.199484
0.202801
0.206629
0.210806
0.215169
0.219573
0.223899
0.228055
0.231982
0.235667
0.239117
0.242336
0.245327
0.24809
0.250619
0.25291
0.255004
0.257339
0.224683
0.220488
0.217243
0.214453
0.211949
0.209796
0.208187
0.207309
0.207259
0.208023
0.209498
0.211533
0.21396
0.216627
0.219404
0.222197
0.224948
0.227622
0.230192
0.232639
0.234945
0.2371
0.239106
0.241018
0.243301
0.246317
0.241988
0.237843
0.233666
0.229326
0.224878
0.220564
0.2167
0.213565
0.211327
0.210025
0.209594
0.209897
0.210773
0.212066
0.21364
0.215392
0.217244
0.219135
0.221021
0.222866
0.224651
0.226379
0.228111
0.230312
0.260656
0.256926
0.252889
0.248543
0.243761
0.2385
0.232897
0.227242
0.221889
0.21716
0.213279
0.21035
0.208362
0.207223
0.206798
0.206941
0.207515
0.208403
0.209508
0.210755
0.212086
0.213469
0.214899
0.216433
0.218514
0.267829
0.265004
0.261642
0.257887
0.253641
0.248769
0.243251
0.237228
0.23097
0.224812
0.219085
0.214055
0.209887
0.206642
0.204293
0.202749
0.201889
0.201584
0.201714
0.202173
0.20288
0.203782
0.204859
0.206152
0.208065
0.264978
0.26364
0.261717
0.259464
0.256888
0.253871
0.250285
0.246065
0.241236
0.235905
0.230252
0.224494
0.218856
0.213545
0.208726
0.204513
0.200968
0.198109
0.195915
0.194346
0.193353
0.19289
0.192929
0.193473
0.194761

SCALARS pressure float
LOOKUP_TABLE default
10000
10000
10000
10000
10000
10000
10000
10000
10000
10000
10000
10000
10000
10000
10000
10000
10000
10000
10000
10000
10000
10000
10000
10000
10000
10000
10000
10000
10000
10000
10000
10000
10000
10000
10000
10000
10000
10000
10000
10000
10000
10000
10000
10000
10000
10000
10000
10000
10000
10000
10000
10000
10000
10000
10000
10000
10000
10000
10000
10000
10000
10000
10000
10000
10000
10000
10000
10000
10000
10000
10000
10000
10000
10000
10000
10000
10000
10000
10000
10000
10000
10000
10000
10000
10000
10000
10000
10000
10000
10000
10000
10000
10000
10000
10000
10000
10000
10000
10000
10000
10000
10000
10000
10000
10000
10000
10000
10000
10000
10000
10000
10000
10000
10000
10000
10000
10000
10000
10000
10000
10000
10000
10000
10000
10000
10000
10000
10000
10000
10000
10000
10000
10000
10000
10000
10000
10000
10000
10000
10000
10000
10000
10000
10000
10000
10000
10000
10000
10000
10000
10000
10000
10000
10000
10000
10000
10000
10000
10000
10000
10000
10000
10000
10000
10000
10000
10000
10000
10000
10000
10000
10000
10000
10000
10000
10000
10000
10000
10000
10000
10000
10000
10000
10000
10000
10000
10000
10000
10000
10000
10000
10000
10000
10000
10000
10000
10000
10000
10000
10000
10000
10000
10000
10000
10000
10000
10000
10000
10000
10000
10000
10000
10000
10000
10000
10000
10000
10000
10000
10000
10000
10000
10000
10000
10000
10000
10000
10000
10000
10000
10000
10000
10000
10000
10000
10000
10000
10000
10000
10000
10000
10000
10000
10000
10000
10000
10000
10000
10000
10000
10000
10000
10000
10000
10000
10000
10000
10000
10000
10000
10000
10000
10000
10000
10000
10000
10000
10000
10000
10000
10000
10000
10000
10000
10000
10000
10000
10000
10000
10000
10000
10000
10000
10000
10000
10000
10000
10000
10000
10000
10000
10000
10000
10000
10000
10000
10000
10000
10000
10000
10000
10000
10000
10000
10000
10000
10000
10000
10000
10000
10000
10000
10000
10000
10000
10000
10000
10000
10000
10000
10000
10000
10000
10000
10000
10000
10000
10000
10000
10000
10000
10000
10000
10000
10000
10000
10000
10000
10000
10000
10000
10000
10000
10000
10000
10000
10000
10000
10000
10000
10000
10000
10000
10000
10000
10000
10000
10000
10000
10000
10000
10000
10000
10000
10000
10000
10000
10000
10000
10000
10000
10000
10000
10000
10000
10000
10000
10000
10000
10000
10000
10000
10000
10000
10000
10000
10000
10000
10000
10000
10000
10000
10000
10000
10000
10000
10000
10000
10000
10000
10000
10000
10000
10000
10000
10000
10000
10000
10000
10000
10000
10000
10000
10000
10000
10000
10000
10000
10000
10000
10000
10000
10000
10000
10000
17490
13948.8
11779.2
10733.8
10290.8
10114.1
10044.9
10017.9
10007.2
10002.9
10001.2
10000.5
10000.2
10000.1
10000
10000
10000
10000
10000
10000
10000
10000
10000
10000
10000
21075.1
18014.4
14975.8
12712.1
11338.3
10619.5
10277.4
10122.6
10054
10023.9
10010.6
10004.8
10002.2
10001
10000.5
10000.2
10000.1
10000
10000
10000
10000
10000
10000
10000
10000
22852
20878.2
18261.3
15595.5
13393.1
11871.9
10963.3
10474.6
10228.6
10109.1
10051.9
10024.8
10011.9
10005.7
10002.8
10001.3
10000.7
10000.3
10000.2
10000.1
10000
10000
10000
10000
10000
23741
22614.2
20807.3
18523.9
16121.4
13995.5
12390.2
11333.4
10708.7
10366
10186.2
10094.1
10047.6
10024.1
10012.2
10006.2
10003.2
10001.6
10000.9
10000.4
10000.2
10000.1
10000.1
10000
10000
24183.5
23582.3
22493.3
20867.2
18836.3
16639.3
14589.6
12929.5
11747
10990
10542.6
10291.7
10155.3
10082.4
10043.7
10023.2
10012.4
10006.6
10003.6
10001.9
10001
10000.6
10000.3
10000.2
10000.1
24411.2
24096.7
23478
22476.1
21038.3
19201
17180.9
15209.6
13514.8
12221.6
11332.8
10770.5
10435.2
10242.6
10134.4
10074.4
10041.2
10022.8
10012.7
10007.1
10004
10002.3
10001.3
10000.9
10000.6
24531
24368.1
24030.8
23450.5
22537.3
21260.2
19633.1
17758
15872.8
14162.9
12774.1
11754.3
11066
10630.4
10366.7
10211.5
10121.5
10069.7
10040.1
10023.1
10013.4
10007.9
10004.8
10003.2
10002.4
24594.9
24510.7
24331
24009.5
23473.1
22664.3
21526
20078.2
18394.8
16585.5
14884
13418.9
12272.7
11448.9
10895.8
10542.7
10324.9
10193.4
10114.9
10068.3
10040.9
10024.8
10015.5
10010.5
10008.3
24629.7
24585.7
24491.3
24318.6
24019
23541.4
22822.5
21831
20551.6
19022.5
17371.9
15682.8
14165.2
12905.7
11941.7
11254.6
10791.4
10491.7
10302.9
10186.1
10114.8
10071.7
10046.3
10032.3
10025.9
24648.9
24625.7
24576.3
24485.5
24324
24055.8
23632.2
23011.6
22150.7
21032.1
19685.7
18141.4
16570.3
15028
13665.9
12567.3
11734.7
11140.5
10736.2
10470.4
10300.1
10193.5
10128.9
10092.4
10075.5
24659.8
24647.3
24621.4
24574.4
24489.7
24344.5
24107
23743
23211.1
22476
21518.9
20325
18966.5
17468.3
15969
14579.4
13350.2
12366.2
11625.7
11094.3
10729.5
10488.7
10336.9
10248.8
10207.2
24666.2
24659.3
24645.7
24621.5
24578
24501.8
24373.6
24170.1
23861.1
23414.3
22798.9
21982.8
20973
19758.3
18406.5
16991.1
15579.5
14293
13197
12304.2
11623.9
11145.6
10825.5
10632.1
10538
24670.4
24666.4
24659.1
24646.7
24624.8
24585.9
24519
24409.6
24238.5
23982.5
23615.2
23105.8
22436.7
21579
20544.3
19354.2
18044.6
16705.9
15416.7
14237.2
13233.5
12446.5
11876.7
11506.6
11323.6
24673.4
24671
24667.1
24660.9
24650.2
24631.1
24597.6
24541.4
24451.1
24312.1
24106.3
23811.3
23407
22864.8
22171.9
21319.4
20308.9
19179.9
17980
16767.1
15623.7
14629.7
13840.6
13291.7
13023.9
24676.3
24675
24673.1
24670.3
24665.8
24657.6
24642.6
24616.6
24573.2
24504.4
24399.5
24244.8
24026
23722.9
23320.3
22802.7
22158.3
21394.9
20529.2
19592.3
18643.8
17758.1
17007.9
16460.4
16208.1
24681.1
24680.7
24680.4
24680.4
24680.3
24679.6
24677
24670.6
24658
24635.5
24598.6
24541.1
24456.6
24335.8
24171.5
23955.9
23683.1
23356
22982
22575.7
22165.8
21788.4
21475.6
21255.7
21209.8
24692.1
24693.1
24695.3
24699
24704.8
24713
24723.8
24737.6
24754.8
24776
24802.2
24834.7
24876
24929.1
24999.8
25095.4
25225.7
25403.8
25640.9
25942
26302.4
26699
27085.2
27404.4
27680.3
15947.8
18346.2
20059.1
21256.8
22123.6
22769.9
23265
23655.7
23975.9
24252.6
24508.9
24766.7
25048.9
25380.3
25788.7
26304.2
26955.5
27765.2
28738.5
29852.7
31050.5
32238.4
33296.6
34108.4
34657.6
12864.9
14596.5
16323
17801.4
19043.5
20089.1
20977.8
21745.9
22427.5
23055.8
23665.1
24292.6
24979
25768
26704
27825.2
29154.4
30688.8
32390.2
34182.3
35957.2
37589.4
38954.4
39953.8
40580.8
11631.4
12660
13960.5
15267.2
16507.5
17662.5
18736.8
19747.8
20721.9
21692.6
22700.3
23790.6
25011.6
26406.9
28007.2
29818.9
31816.3
33939.5
36099.5
38190.6
40106.4
41753.4
43059.7
43982.2
44534.3
11121.4
11710.9
12604.2
13635.6
14732
15857.6
17002.3
18175.7
19401.5
20714.4
22154.7
23761.3
25563
27567.3
29753.1
32067.8
34433.4
36757.3
38947.5
40924.4
42628.6
44023.3
45090.7
45827.3
46249.7
10986.6
11337.5
11950.3
12754.2
13710.4
14795.2
16002.5
17342.2
18835.5
20507
22375.6
24444.2
26691.6
29070.2
31509.3
33925.7
36236
38368
40268.8
41905.8
43265.6
44348.7
45163.2
45718.7
46021.6
11173.2
11414
11878.4
12559.2
13454.4
14561.1
15880.5
17417
19172.9
21140.2
23294
25588.7
27960.6
30335.6
32648.9
34804.2
36772.4
38523.3
40036.8
41310.9
42353.5
43176.5
43792.3
44209.7
44437.5
11814.9
12018.2
12444.9
13110.8
14033.2
15218.5
16660.9
18342.8
20232.9
22285.1
24440.8
26633.4
28795.9
30868.7
32807.8
34563.6
36126.9
37493.6
38663.7
39644.6
40446.9
41081.4
41556.7
41878
42060.9
13192.8
13390.4
13829.1
14517
15467.6
16676.9
18121.2
19760
21540.8
23404
25289.6
27142.2
28915.5
30574.8
32098.2
33465.3
34675.2
35731.5
36638.5
37403
38032.4
38532.9
38909
39163
39317.4
15636.6
15796.1
16184.7
16790.6
17618
18655.2
19872.4
21226.6
22668.3
24147.7
25619.9
27047.7
28403
29666.2
30825.4
31871.1
32802.9
33622.8
34333.5
34938.1
35439.9
35841.5
36144.1
36348.8
36482.7
19265.3
19301.8
19486.1
19801
20264.1
20881.6
21642.4
22520.8
23483
24493
25517.4
26528.1
27503.3
28426.9
29287.5
30076.5
30790.2
31426.8
31985.6
32466.1
32868.4
33192.2
33437
33602.9
33720.4
23732.9
23588.2
23453.8
23324.1
23249.2
23275.8
23431.5
23721.8
24133.9
24643.2
25220.8
25838.5
26471.7
27100.1
27707.8
28282.4
28815.2
29300.4
29733.3
30110.6
30429.6
30688.2
30884.3
31017.8
31120.7
28276.9
27983.7
27567.1
27027.9
26435.2
25869.2
25398.8
25069.8
24900.6
24886.1
25005.2
25229.3
25528.3
25875
26246.2
26622.8
26990.4
27338
27657
27941
28184.8
28384.6
28537.1
28641.6
28730.5
32091.3
31743.3
31195.9
30441.9
29537.6
28562.9
27604.2
26738.6
26021.7
25482
25122.3
24926
24865.8
24910.8
25031.1
25200.5
25397.4
25604.7
25809
25999.9
26169.5
26311.7
26421.8
26498.4
26573
34696
34377.5
33848.9
33092.7
32135.1
31027.4
29839.1
28648.3
27530.1
26544.9
25730.6
25100.9
24648.6
24352.4
24183.8
24113.2
24113.2
24160.3
24235.3
24322.8
24411
24490.9
24555.8
24602.9
24661.7
36036.4
35786.9
35355.9
34723.4
33891
32877.4
31718.4
30466.7
29186
27943.3
26798.8
25798.1
24966.2
24308.4
23813.6
23460.2
23222.3
23073.6
22990.1
22951.6
22941.5
22946.9
22958.3
22970.8
23010.7
35575.4
35444.6
35201.8