# vtk DataFile Version 3.0
2D CFD data
ASCII
DATASET STRUCTURED_GRID
DIMENSIONS 100 50 1
POINTS 5000 float
0.148515 0.075 0.0
0.148515 0.225 0.0
0.148515 0.375 0.0
0.148515 0.525 0.0
0.148515 0.675 0.0
0.148515 0.825 0.0
0.148515 0.975 0.0
0.148515 1.125 0.0
0.148515 1.275 0.0
0.148515 1.425 0.0
0.148515 1.575 0.0
0.148515 1.725 0.0
0.148515 1.875 0.0
0.148515 2.025 0.0
0.148515 2.175 0.0
0.148515 2.325 0.0
0.148515 2.475 0.0
0.148515 2.625 0.0
0.148515 2.775 0.0
0.148515 2.925 0.0
0.148515 3.075 0.0
0.148515 3.225 0.0
0.148515 3.375 0.0
0.148515 3.525 0.0
0.148515 3.675 0.0
0.148515 3.825 0.0
0.148515 3.975 0.0
0.148515 4.125 0.0
0.148515 4.275 0.0
0.148515 4.425 0.0
0.148515 4.575 0.0
0.148515 4.725 0.0
0.148515 4.875 0.0
0.148515 5.025 0.0
0.148515 5.175 0.0
0.148515 5.325 0.0
0.148515 5.475 0.0
0.148515 5.625 0.0
0.148515 5.775 0.0
0.148515 5.925 0.0
0.148515 6.075 0.0
0.148515 6.225 0.0
0.148515 6.375 0.0
0.148515 6.525 0.0
0.148515 6.675 0.0
0.148515 6.825 0.0
0.148515 6.975 0.0
0.148515 7.125 0.0
0.148515 7.275 0.0
0.148515 7.425 0.0
0.445545 0.075 0.0
0.445545 0.225 0.0
0.445545 0.375 0.0
0.445545 0.525 0.0
0.445545 0.675 0.0
0.445545 0.825 0.0
0.445545 0.975 0.0
0.445545 1.125 0.0
0.445545 1.275 0.0
0.445545 1.425 0.0
0.445545 1.575 0.0
0.445545 1.725 0.0
0.445545 1.875 0.0
0.445545 2.025 0.0
0.445545 2.175 0.0
0.445545 2.325 0.0
0.445545 2.475 0.0
0.445545 2.625 0.0
0.445545 2.775 0.0
0.445545 2.925 0.0
0.445545 3.075 0.0
0.445545 3.225 0.0
0.445545 3.375 0.0
0.445545 3.525 0.0
0.445545 3.675 0.0
0.445545 3.825 0.0
0.445545 3.975 0.0
0.445545 4.125 0.0
0.445545 4.275 0.0
0.445545 4.425 0.0
0.445545 4.575 0.0
0.445545 4.725 0.0
0.445545 4.875 0.0
0.445545 5.025 0.0
0.445545 5.175 0.0
0.445545 5.325 0.0
0.445545 5.475 0.0
0.445545 5.625 0.0
0.445545 5.775 0.0
0.445545 5.925 0.0
0.445545 6.075 0.0
0.445545 6.225 0.0
0.445545 6.375 0.0
0.445545 6.525 0.0
0.445545 6.675 0.0
0.445545 6.825 0.0
0.445545 6.975 0.0
0.445545 7.125 0.0
0.445545 7.275 0.0
0.445545 7.425 0.0
0.742574 0.075 0.0
0.742574 0.225 0.0
0.742574 0.375 0.0
0.742574 0.525 0.0
0.742574 0.675 0.0
0.742574 0.825 0.0
0.742574 0.975 0.0
0.742574 1.125 0.0
0.742574 1.275 0.0
0.742574 1.425 0.0
0.742574 1.575 0.0
0.742574 1.725 0.0
0.742574 1.875 0.0
0.742574 2.025 0.0
0.742574 2.175 0.0
0.742574 2.325 0.0
0.742574 2.475 0.0
0.742574 2.625 0.0
0.742574 2.775 0.0
0.742574 2.925 0.0
0.742574 3.075 0.0
0.742574 3.225 0.0
0.742574 3.375 0.0
0.742574 3.525 0.0
0.742574 3.675 0.0
0.742574 3.825 0.0
0.742574 3.975 0.0
0.742574 4.125 0.0
0.742574 4.275 0.0
0.742574 4.425 0.0
0.742574 4.575 0.0
0.742574 4.725 0.0
0.742574 4.875 0.0
0.742574 5.025 0.0
0.742574 5.175 0.0
0.742574 5.325 0.0
0.742574 5.475 0.0
0.742574 5.625 0.0
0.742574 5.775 0.0
0.742574 5.925 0.0
0.742574 6.075 0.0
0.742574 6.225 0.0
0.742574 6.375 0.0
0.742574 6.525 0.0
0.742574 6.675 0.0
0.742574 6.825 0.0
0.742574 6.975 0.0
0.742574 7.125 0.0
0.742574 7.275 0.0
0.742574 7.425 0.0
1.0396 0.075 0.0
1.0396 0.225 0.0
1.0396 0.375 0.0
1.0396 0.525 0.0
1.0396 0.675 0.0
1.0396 0.825 0.0
1.0396 0.975 0.0
1.0396 1.125 0.0
1.0396 1.275 0.0
1.0396 1.425 0.0
1.0396 1.575 0.0
1.0396 1.725 0.0
1.0396 1.875 0.0
1.0396 2.025 0.0
1.0396 2.175 0.0
1.0396 2.325 0.0
1.0396 2.475 0.0
1.0396 2.625 0.0
1.0396 2.775 0.0
1.0396 2.925 0.0
1.0396 3.075 0.0
1.0396 3.225 0.0
1.0396 3.375 0.0
1.0396 3.525 0.0
1.0396 3.675 0.0
1.0396 3.825 0.0
1.0396 3.975 0.0
1.0396 4.125 0.0
1.0396 4.275 0.0
1.0396 4.425 0.0
1.0396 4.575 0.0
1.0396 4.725 0.0
1.0396 4.875 0.0
1.0396 5.025 0.0
1.0396 5.175 0.0
1.0396 5.325 0.0
1.0396 5.475 0.0
1.0396 5.625 0.0
1.0396 5.775 0.0
1.0396 5.925 0.0
1.0396 6.075 0.0
1.0396 6.225 0.0
1.0396 6.375 0.0
1.0396 6.525 0.0
1.0396 6.675 0.0
1.0396 6.825 0.0
1.0396 6.975 0.0
1.0396 7.125 0.0
1.0396 7.275 0.0
1.0396 7.425 0.0
1.33663 0.075 0.0
1.33663 0.225 0.0
1.33663 0.375 0.0
1.33663 0.525 0.0
1.33663 0.675 0.0
1.33663 0.825 0.0
1.33663 0.975 0.0
1.33663 1.125 0.0
1.33663 1.275 0.0
1.33663 1.425 0.0
1.33663 1.575 0.0
1.33663 1.725 0.0
1.33663 1.875 0.0
1.33663 2.025 0.0
1.33663 2.175 0.0
1.33663 2.325 0.0
1.33663 2.475 0.0
1.33663 2.625 0.0
1.33663 2.775 0.0
1.33663 2.925 0.0
1.33663 3.075 0.0
1.33663 3.225 0.0
1.33663 3.375 0.0
1.33663 3.525 0.0
1.33663 3.675 0.0
1.33663 3.825 0.0
1.33663 3.975 0.0
1.33663 4.125 0.0
1.33663 4.275 0.0
1.33663 4.425 0.0
1.33663 4.575 0.0
1.33663 4.725 0.0
1.33663 4.875 0.0
1.33663 5.025 0.0
1.33663 5.175 0.0
1.33663 5.325 0.0
1.33663 5.475 0.0
1.33663 5.625 0.0
1.33663 5.775 0.0
1.33663 5.925 0.0
1.33663 6.075 0.0
1.33663 6.225 0.0
1.33663 6.375 0.0
1.33663 6.525 0.0
1.33663 6.675 0.0
1.33663 6.825 0.0
1.33663 6.975 0.0
1.33663 7.125 0.0
1.33663 7.275 0.0
1.33663 7.425 0.0
1.63366 0.075 0.0
1.63366 0.225 0.0
1.63366 0.375 0.0
1.63366 0.525 0.0
1.63366 0.675 0.0
1.63366 0.825 0.0
1.63366 0.975 0.0
1.63366 1.125 0.0
1.63366 1.275 0.0
1.63366 1.425 0.0
1.63366 1.575 0.0
1.63366 1.725 0.0
1.63366 1.875 0.0
1.63366 2.025 0.0
1.63366 2.175 0.0
1.63366 2.325 0.0
1.63366 2.475 0.0
1.63366 2.625 0.0
1.63366 2.775 0.0
1.63366 2.925 0.0
1.63366 3.075 0.0
1.63366 3.225 0.0
1.63366 3.375 0.0
1.63366 3.525 0.0
1.63366 3.675 0.0
1.63366 3.825 0.0
1.63366 3.975 0.0
1.63366 4.125 0.0
1.63366 4.275 0.0
1.63366 4.425 0.0
1.63366 4.575 0.0
1.63366 4.725 0.0
1.63366 4.875 0.0
1.63366 5.025 0.0
1.63366 5.175 0.0
1.63366 5.325 0.0
1.63366 5.475 0.0
1.63366 5.625 0.0
1.63366 5.775 0.0
1.63366 5.925 0.0
1.63366 6.075 0.0
1.63366 6.225 0.0
1.63366 6.375 0.0
1.63366 6.525 0.0
1.63366 6.675 0.0
1.63366 6.825 0.0
1.63366 6.975 0.0
1.63366 7.125 0.0
1.63366 7.275 0.0
1.63366 7.425 0.0
1.93069 0.075 0.0
1.93069 0.225 0.0
1.93069 0.375 0.0
1.93069 0.525 0.0
1.93069 0.675 0.0
1.93069 0.825 0.0
1.93069 0.975 0.0
1.93069 1.125 0.0
1.93069 1.275 0.0
1.93069 1.425 0.0
1.93069 1.575 0.0
1.93069 1.725 0.0
1.93069 1.875 0.0
1.93069 2.025 0.0
1.93069 2.175 0.0
1.93069 2.325 0.0
1.93069 2.475 0.0
1.93069 2.625 0.0
1.93069 2.775 0.0
1.93069 2.925 0.0
1.93069 3.075 0.0
1.93069 3.225 0.0
1.93069 3.375 0.0
1.93069 3.525 0.0
1.93069 3.675 0.0
1.93069 3.825 0.0
1.93069 3.975 0.0
1.93069 4.125 0.0
1.93069 4.275 0.0
1.93069 4.425 0.0
1.93069 4.575 0.0
1.93069 4.725 0.0
1.93069 4.875 0.0
1.93069 5.025 0.0
1.93069 5.175 0.0
1.93069 5.325 0.0
1.93069 5.475 0.0
1.93069 5.625 0.0
1.93069 5.775 0.0
1.93069 5.925 0.0
1.93069 6.075 0.0
1.93069 6.225 0.0
1.93069 6.375 0.0
1.93069 6.525 0.0
1.93069 6.675 0.0
1.93069 6.825 0.0
1.93069 6.975 0.0
1.93069 7.125 0.0
1.93069 7.275 0.0
1.93069 7.425 0.0
2.22772 0.075 0.0
2.22772 0.225 0.0
2.22772 0.375 0.0
2.22772 0.525 0.0
2.22772 0.675 0.0
2.22772 0.825 0.0
2.22772 0.975 0.0
2.22772 1.125 0.0
2.22772 1.275 0.0
2.22772 1.425 0.0
2.22772 1.575 0.0
2.22772 1.725 0.0
2.22772 1.875 0.0
2.22772 2.025 0.0
2.22772 2.175 0.0
2.22772 2.325 0.0
2.22772 2.475 0.0
2.22772 2.625 0.0
2.22772 2.775 0.0
2.22772 2.925 0.0
2.22772 3.075 0.0
2.22772 3.225 0.0
2.22772 3.375 0.0
2.22772 3.525 0.0
2.22772 3.675 0.0
2.22772 3.825 0.0
2.22772 3.975 0.0
2.22772 4.125 0.0
2.22772 4.275 0.0
2.22772 4.425 0.0
2.22772 4.575 0.0
2.22772 4.725 0.0
2.22772 4.875 0.0
2.22772 5.025 0.0
2.22772 5.175 0.0
2.22772 5.325 0.0
2.22772 5.475 0.0
2.22772 5.625 0.0
2.22772 5.775 0.0
2.22772 5.925 0.0
2.22772 6.075 0.0
2.22772 6.225 0.0
2.22772 6.375 0.0
2.22772 6.525 0.0
2.22772 6.675 0.0
2.22772 6.825 0.0
2.22772 6.975 0.0
2.22772 7.125 0.0
2.22772 7.275 0.0
2.22772 7.425 0.0
2.52475 0.075 0.0
2.52475 0.225 0.0
2.52475 0.375 0.0
2.52475 0.525 0.0
2.52475 0.675 0.0
2.52475 0.825 0.0
2.52475 0.975 0.0
2.52475 1.125 0.0
2.52475 1.275 0.0
2.52475 1.425 0.0
2.52475 1.575 0.0
2.52475 1.725 0.0
2.52475 1.875 0.0
2.52475 2.025 0.0
2.52475 2.175 0.0
2.52475 2.325 0.0
2.52475 2.475 0.0
2.52475 2.625 0.0
2.52475 2.775 0.0
2.52475 2.925 0.0
2.52475 3.075 0.0
2.52475 3.225 0.0
2.52475 3.375 0.0
2.52475 3.525 0.0
2.52475 3.675 0.0
2.52475 3.825 0.0
2.52475 3.975 0.0
2.52475 4.125 0.0
2.52475 4.275 0.0
2.52475 4.425 0.0
2.52475 4.575 0.0
2.52475 4.725 0.0
2.52475 4.875 0.0
2.52475 5.025 0.0
2.52475 5.175 0.0
2.52475 5.325 0.0
2.52475 5.475 0.0
2.52475 5.625 0.0
2.52475 5.775 0.0
2.52475 5.925 0.0
2.52475 6.075 0.0
2.52475 6.225 0.0
2.52475 6.375 0.0
2.52475 6.525 0.0
2.52475 6.675 0.0
2.52475 6.825 0.0
2.52475 6.975 0.0
2.52475 7.125 0.0
2.52475 7.275 0.0
2.52475 7.425 0.0
2.82178 0.075 0.0
2.82178 0.225 0.0
2.82178 0.375 0.0
2.82178 0.525 0.0
2.82178 0.675 0.0
2.82178 0.825 0.0
2.82178 0.975 0.0
2.82178 1.125 0.0
2.82178 1.275 0.0
2.82178 1.425 0.0
2.82178 1.575 0.0
2.82178 1.725 0.0
2.82178 1.875 0.0
2.82178 2.025 0.0
2.82178 2.175 0.0
2.82178 2.325 0.0
2.82178 2.475 0.0
2.82178 2.625 0.0
2.82178 2.775 0.0
2.82178 2.925 0.0
2.82178 3.075 0.0
2.82178 3.225 0.0
2.82178 3.375 0.0
2.82178 3.525 0.0
2.82178 3.675 0.0
2.82178 3.825 0.0
2.82178 3.975 0.0
2.82178 4.125 0.0
2.82178 4.275 0.0
2.82178 4.425 0.0
2.82178 4.575 0.0
2.82178 4.725 0.0
2.82178 4.875 0.0
2.82178 5.025 0.0
2.82178 5.175 0.0
2.82178 5.325 0.0
2.82178 5.475 0.0
2.82178 5.625 0.0
2.82178 5.775 0.0
2.82178 5.925 0.0
2.82178 6.075 0.0
2.82178 6.225 0.0
2.82178 6.375 0.0
2.82178 6.525 0.0
2.82178 6.675 0.0
2.82178 6.825 0.0
2.82178 6.975 0.0
2.82178 7.125 0.0
2.82178 7.275 0.0
2.82178 7.425 0.0
3.11881 0.075 0.0
3.11881 0.225 0.0
3.11881 0.375 0.0
3.11881 0.525 0.0
3.11881 0.675 0.0
3.11881 0.825 0.0
3.11881 0.975 0.0
3.11881 1.125 0.0
3.11881 1.275 0.0
3.11881 1.425 0.0
3.11881 1.575 0.0
3.11881 1.725 0.0
3.11881 1.875 0.0
3.11881 2.025 0.0
3.11881 2.175 0.0
3.11881 2.325 0.0
3.11881 2.475 0.0
3.11881 2.625 0.0
3.11881 2.775 0.0
3.11881 2.925 0.0
3.11881 3.075 0.0
3.11881 3.225 0.0
3.11881 3.375 0.0
3.11881 3.525 0.0
3.11881 3.675 0.0
3.11881 3.825 0.0
3.11881 3.975 0.0
3.11881 4.125 0.0
3.11881 4.275 0.0
3.11881 4.425 0.0
3.11881 4.575 0.0
3.11881 4.725 0.0
3.11881 4.875 0.0
3.11881 5.025 0.0
3.11881 5.175 0.0
3.11881 5.325 0.0
3.11881 5.475 0.0
3.11881 5.625 0.0
3.11881 5.775 0.0
3.11881 5.925 0.0
3.11881 6.075 0.0
3.11881 6.225 0.0
3.11881 6.375 0.0
3.11881 6.525 0.0
[...]
POINT_DATA 5000
SCALARS density float
LOOKUP_TABLE default
0.116144
0.116144
0.116144
0.116144
0.116144
0.116144
0.116144
0.116144
0.116144
0.116144
0.116144
0.116144
0.116144
0.116144
0.116144
0.116144
0.116144
0.116144
0.116144
0.116144
0.116144
0.116144
0.116144
0.116144
0.116144
0.116144
0.116144
0.116144
0.116144
0.116144
0.116144
0.116144
0.116144
0.116144
0.116144
0.116144
0.116144
0.116144
0.116144
0.116144
0.116144
0.116144
0.116144
0.116144
0.116144
0.116144
0.116144
0.116144
0.116144
0.116144
0.116144
0.116144
0.116144
0.116144
0.116144
0.116144
0.116144
0.116144
0.116144
0.116144
0.116144
0.116144
0.116144
0.116144
0.116144
0.116144
0.116144
0.116144
0.116144
0.116144
0.116144
0.116144
0.116144
0.116144
0.116144
0.116144
0.116144
0.116144
0.116144
0.116144
0.116144
0.116144
0.116144
0.116144
0.116144
0.116144
0.116144
0.116144
0.116144
0.116144
0.116144
0.116144
0.116144
0.116144
0.116144
0.116144
0.116144
0.116144
0.116144
0.116144
0.116144
0.116144
0.116144
0.116144
0.116144
0.116144
0.116144
0.116144
0.116144
0.116144
0.116144
0.116144
0.116144
0.116144
0.116144
0.116144
0.116144
0.116144
0.116144
0.116144
0.116144
0.116144
0.116144
0.116144
0.116144
0.116144
0.116144
0.116144
0.116144
0.116144
0.116144
0.116144
0.116144
0.116144
0.116144
0.116144
0.116144
0.116144
0.116144
0.116144
0.116144
0.116144
0.116144
0.116144
0.116144
0.116144
0.116144
0.116144
0.116144
0.116144
0.116144
0.116144
0.116144
0.116144
0.116144
0.116144
0.116144
0.116144
0.116144
0.116144
0.116144
0.116144
0.116144
0.116144
0.116144
0.116144
0.116144
0.116144
0.116144
0.116144
0.116144
0.116144
0.116144
0.116144
0.116144
0.116144
0.116144
0.116144
0.116144
0.116144
0.116144
0.116144
0.116144
0.116144
0.116144
0.116144
0.116144
0.116144
0.116144
0.116144
0.116144
0.116144
0.116144
0.116144
0.116144
0.116144
0.116144
0.116144
0.116144
0.116144
0.116144
0.116144
0.116144
0.116144
0.116144
0.116144
0.116144
0.116144
0.116144
0.116144
0.116144
0.116144
0.116144
0.116144
0.116144
0.116144
0.116144
0.116144
0.116144
0.116144
0.116144
0.116144
0.116144
0.116144
0.116144
0.116144
0.116144
0.116144
0.116144
0.116144
0.116144
0.116144
0.116144
0.116144
0.116144
0.116144
0.116144
0.116144
0.116144
0.116144
0.116144
0.116144
0.116144
0.116144
0.116144
0.116144
0.116144
0.116144
0.116144
0.116144
0.116144
0.116144
0.116144
0.116144
0.116144
0.116144
0.116144
0.116144
0.116144
0.116144
0.116144
0.116144
0.116144
0.116144
0.116144
0.116144
0.116144
0.116144
0.116144
0.116144
0.116144
0.116144
0.116144
0.116144
0.116144
0.116144
0.116144
0.116144
0.116144
0.116144
0.116144
0.116144
0.116144
0.116144
0.116144
0.116144
0.116144
0.116144
0.116144
0.116144
0.116144
0.116144
0.116144
0.116144
0.116144
0.116144
0.116144
0.116144
0.116144
0.116144
0.116144
0.116144
0.116144
0.116144
0.116144
0.116144
0.116144
0.116144
0.116144
0.116144
0.116144
0.116144
0.116144
0.116144
0.116144
0.116144
0.116144
0.116144
0.116144
0.116144
0.116144
0.116144
0.116144
0.116144
0.116144
0.116144
0.116144
0.116144
0.116144
0.116144
0.116144
0.116144
0.116144
0.116144
0.116144
0.116144
0.116144
0.116144
0.116144
0.116144
0.116144
0.116144
0.116144
0.116144
0.116144
0.116144
0.116144
0.116144
0.116144
0.116144
0.116144
0.116144
0.116144
0.116144
0.116144
0.116144
0.116144
0.116144
0.116144
0.116144
0.116144
0.116144
0.116144
0.116144
0.116144
0.116144
0.116144
0.116144
0.116144
0.116144
0.116144
0.116144
0.116144
0.116144
0.116144
0.116144
0.116144
0.116144
0.116144
0.116144
0.116144
0.116144
0.116144
0.116144
0.116144
0.116144
0.116144
0.116144
0.116144
0.116144
0.116144
0.116144
0.116144
0.116144
0.116144
0.116144
0.116144
0.116144
0.116144
0.116144
0.116144
0.116144
0.116144
0.116144
0.116144
0.116144
0.116144
0.116144
0.116144
0.116144
0.116144
0.116144
0.116144
0.116144
0.116144
0.116144
0.116144
0.116144
0.116144
0.116144
0.116144
0.116144
0.116144
0.116144
0.116144
0.116144
0.116144
0.116144
0.116144
0.116144
0.116144
0.116144
0.116144
0.116144
0.116144
0.116144
0.116144
0.116144
0.116144
0.116144
0.116144
0.116144
0.116144
0.116144
0.116144
0.116144
0.116144
0.116144
0.116144
0.116144
0.116144
0.116144
0.116144
0.116144
0.116144
0.116144
0.116144
0.116144
0.116144
0.116144
0.116144
0.116144
0.116144
0.116144
0.116144
0.116144
0.116144
0.116144
0.116144
0.116144
0.116144
0.116144
0.116144
0.116144
0.116144
0.116144
0.116144
0.116144
0.116144
0.116144
0.116144
0.116144
0.116144
0.116144
0.116144
0.116144
0.116144
0.116144
0.116144
0.116144
0.116144
0.116144
0.116144
0.116144
0.116144
0.116144
0.116144
0.116144
0.116144
0.116144
0.116144
0.116144
0.116144
0.116144
0.116144
0.116144
0.116144
0.116144
0.116144
0.116144
0.116144
0.116144
0.116144
0.116144
0.116144
0.116144
0.116144
0.116144
0.116144
0.116144
0.116144
0.116144
0.116144
0.116144
0.116144
0.116144
0.116144
0.116144
0.116144
0.116144
0.116144
0.116144
0.116144
0.116144
0.116144
0.116144
0.116144
0.116144
0.116144
0.116144
0.116144
0.116144
0.116144
0.116144
0.116144
0.116144
0.116144
0.116144
0.116144
0.116144
0.116144
0.116144
0.116144
0.116144
0.116144
0.116144
0.116144
0.116144
0.116144
0.116144
0.116144
0.116144
0.116144
0.116144
0.116144
0.116144
0.116144
0.116144
0.116144
0.116144
0.116144
0.116144
0.116144
0.116144
0.116144
0.116144
0.116144
0.116144
0.116144
0.116144
0.116144
0.116144
0.116144
0.116144
0.116144
0.116144
0.116144
0.116144
0.116144
0.116144
0.116144
0.116144
0.116144
0.116144
0.116144
0.116144
0.116144
0.116144
0.116144
0.116144
0.116144
0.116144
0.116144
0.116144
0.116144
0.116144
0.116144
0.116144
0.116144
0.116144
0.116144
0.116144
0.116144
0.116144
0.116144
0.116144
0.116144
0.116144
0.116144
0.116144
0.116144
0.116144
0.116144
0.116144
0.116144
0.116144
0.116144
0.116144
0.116144
0.116144
0.116144
0.116144
0.116144
0.116144
0.116144
0.116144
0.116144
0.116144
0.116144
0.116144
0.116144
0.116144
0.116144
0.116144
0.116144
0.116144
0.116144
0.116144
0.116144
0.116144
0.116144
0.116144
0.116144
0.116144
0.116144
0.116144
0.116144
0.116144
0.116144
0.116144
0.116144
0.116144
0.116144
0.116144
0.116144
0.116144
0.116144
0.116144
0.116144
0.116144
0.116144
0.116144
0.116144
0.116144
0.116144
0.116144
0.116144
0.116144
0.116144
0.116144
0.116144
0.116144
0.116144
0.116144
0.116144
0.116144
0.116144
0.116144
0.116144
0.116144
0.116144
0.116144
0.116144
0.116144
0.116144
0.116144
0.116144
0.116144
0.116144
0.116144
0.116144
0.116144
0.116144
0.116144
0.116144
0.116144
0.116144
0.116144
0.116144
0.116144
0.116144
0.116144
0.116144
0.116144
0.116144
0.116144
0.116144
0.116144
0.116144
0.116144
0.116144
0.116144
0.116144
0.116144
0.116144
0.116144
0.116144
0.116144
0.116144
0.116144
0.116144
0.116144
0.116144
0.116144
0.116144
0.116144
0.116144
0.116144
0.116144
0.116144
0.116144
0.116144
0.116144
0.116144
0.116144
0.116144
0.116144
0.116144
0.116144
0.116144
0.116144
0.116144
0.116144
0.116144
0.116144
0.116144
0.116144
0.116144
0.116144
0.116144
0.116144
0.116144
0.116144
0.116144
0.116144
0.116144
0.116144
0.116144
0.116144
0.116144
0.116144
0.116144
0.116144
0.116144
0.116144
0.116144
0.116144
0.116144
0.116144
0.116144
0.116144
0.116144
0.116144
0.116144
0.116144
0.116144
0.116144
0.116144
0.116144
0.116144
0.116144
0.116144
0.116144
0.116144
0.116144
0.116144
0.116144
0.116144
0.116144
0.116144
0.116144
0.116144
0.116144
0.116144
0.116144
0.116144
0.116144
0.116144
0.116144
0.116144
0.116144
0.116144
0.116144
0.116144
0.116144
0.116144
0.116144
0.116144
0.116144
0.116144
0.116144
0.116144
0.116144
0.116144
0.116144
0.116144
0.116144
0.116144
0.116144
0.116144
0.116144
0.116144
0.116144
0.116144
0.116144
0.116144
0.116144
0.116144
0.116144
0.116144
0.116144
0.116144
0.116144
0.116144
0.116144
0.116144
0.116144
0.116144
0.116144
0.116144
0.116144
0.116144
0.116144
0.116144
0.116144
0.116144
0.116144
0.116144
0.116144
0.116144
0.116144
0.116144
0.116144
0.116144
0.116144
0.116144
0.116144
0.116144
0.116144
0.116144
0.116144
0.116144
0.116144
0.116144
0.116144
0.116144
0.116144
0.116144
0.116144
0.116144
0.116144
0.116144
0.116144
0.116144
0.116144
0.116144
0.116144
0.116144
0.116144
0.116144
0.116144
0.116144
0.116144
0.116144
0.116144
0.116144
0.116144
0.116144
0.116144
0.116144
0.116144
0.116144
0.116144
0.116144
0.116144
0.116144
0.116144
0.116144
0.116144
0.116144
0.116144
0.116144
0.116144
0.116144
0.116144
0.116144
0.116144
0.116144
0.116144
0.116144
0.116144
0.116144
0.116144
0.116144
0.116144
0.116144
0.116144
0.116144
0.116144
0.116144
0.116144
0.116144
0.116144
0.116144
0.116144
0.116144
0.116144
0.116144
0.116144
0.116144
0.116144
0.116144
0.116144
0.116144
0.116144
0.116144
0.116144
0.116144
0.116144
0.116144
0.116144
0.116144
0.116144
0.116144
0.116144
0.116144
0.116144
0.116144
0.116144
0.116144
0.116144
0.116144
0.116144
0.116144
0.116144
0.116144
0.116144
0.116144
0.116144
0.116144
0.116144
0.116144
0.116144
0.116144
0.116144
0.116144
0.116144
0.116144
0.116144
0.116144
0.116144
0.116144
0.116144
0.116144
0.116144
0.116144
0.116144
0.116144
0.116144
0.116144
0.116144
0.116144
0.116144
0.116144
0.116144
0.116144
0.116144
0.116144
0.116144
0.116144
0.116144
0.116144
0.116144
0.116144
0.116144
0.116144
0.116144
0.116144
0.116144
0.116144
0.116144
0.116144
0.116144
0.116144
0.116144
0.116144
0.116144
0.116144
0.116144
0.116144
0.116144
0.116144
0.116144
0.116144
0.116144
0.116144
0.116144
0.116144
0.116144
0.116144
0.116144
0.116144
0.116144
0.116144
0.116144
0.116144
0.116144
0.116144
0.116144
0.116144
0.116144
0.116144
0.116144
0.116144
0.116144
0.116144
0.116144
0.116144
0.116144
0.116144
0.116144
0.116144
0.116144
0.116144
0.116144
0.116144
0.116144
0.116144
0.116144
0.116144
0.116144
0.116144
0.116144
0.116144
0.116144
0.116144
0.116144
0.116144
0.116144
0.116144
0.116144
0.116144
0.116144
0.116144
0.116144
0.116144
0.116144
0.116144
0.116144
0.116144
0.116144
0.116144
0.116144
0.116144
0.116144
0.116144
0.116144
0.116144
0.116144
0.116144
0.116144
0.116144
0.116144
0.116144
0.116144
0.116144
0.116144
0.116144
0.116144
0.116144
0.116144
0.116144
0.116144
0.116144
0.116144
0.116144
0.116144
0.116144
0.116144
0.116144
0.116144
0.116144
0.116144
0.116144
0.116144
0.116144
0.116144
0.116144
0.116144
0.116144
0.116144
0.116144
0.116144
0.116144
0.116144
0.116144
0.116144
0.116144
0.116144
0.116144
0.116144
0.116144
0.116144
0.116144
0.116144
0.116144
0.116144
0.116144
0.116144
0.116144
0.116144
0.116144
0.116144
0.116144
0.116144
0.116144
0.116144
0.116144
0.116144
0.116144
0.116144
0.116144
0.116144
0.116144
0.116144
0.116144
0.116144
0.116144
0.116144
0.116144
0.116144
0.116144
0.116144
0.116144
0.116144
0.116144
0.116144
0.116144
0.116144
0.116144
0.116144
0.116144
0.116144
0.116144
0.116144
0.116144
0.116144
0.116144
0.116144
0.116144
0.116144
0.116144
0.116144
0.116144
0.116144
0.116144
0.116144
0.116144
0.116144
0.116144
0.116144
0.116144
0.116144
0.116144
0.116144
0.116144
0.116144
0.116144
0.116144
0.116144
0.116144
0.116144
0.116144
0.116144
0.116144
0.116144
0.116144
0.116144
0.116144
0.116144
0.116144
0.116144
0.116144
0.116144
0.116144
0.116144
0.116144
0.116144
0.116144
0.116144
0.116144
0.116144
0.116144
0.116144
0.116144
0.116144
0.116144
0.116144
0.116144
0.116144
0.116144
0.116144
0.116144
0.116144
0.116144
0.116144
0.116144
0.116144
0.116144
0.116144
0.116144
0.116144
0.116144
0.116144
0.116144
0.116144
0.116144
0.116144
0.116144
0.116144
0.116144
0.116144
0.116144
0.116144
0.116144
0.116144
0.116144
0.116144
0.116144
0.116144
0.116144
0.116144
0.116144
0.116144
0.116144
0.116144
0.116144
0.116144
0.116144
0.116144
0.116144
0.116144
0.116144
0.116144
0.116144
0.116144
0.116144
0.116144
0.116144
0.116144
0.116144
0.116144
0.116144
0.116144
0.116144
0.116144
0.116144
0.116144
0.116144
0.116144
0.116144
0.116144
0.116144
0.116144
0.116144
0.116144
0.116144
0.116144
0.116144
0.116144
0.116144
0.116144
0.116144
0.116144
0.116144
0.116144
0.116144
0.116144
0.116144
0.116144
0.116144
0.116144
0.116144
0.116144
0.116144
0.116144
0.116144
0.116144
0.116144
0.116144
0.116144
0.116144
0.116144
0.116144
0.116144
0.116144
0.116144
0.116144
0.116144
0.116144
0.116144
0.116144
0.116144
0.116144
0.116144
0.116144
0.116144
0.116144
0.116144
0.116144
0.116144
0.116144
0.116144
0.116144
0.116144
0.116144
0.116144
0.116144
0.116144
0.116144
0.116144
0.116144
0.116144
0.116144
0.116144
0.116144
0.116144
0.116144
0.116144
0.116144
0.116144
0.116144
0.116144
0.116144
0.116144
0.116144
0.116144
0.116144
0.116144
0.116144
0.116144
0.116144
0.116144
0.116144
0.116144
0.116144
0.116144
0.116144
0.116144
0.116144
0.116144
0.116144
0.116144
0.116144
0.116144
0.116144
0.116144
0.116144
0.116144
0.116144
0.116144
0.116144
0.116144
0.116144
0.116144
0.116144
0.116144
0.116144
0.116144
0.116144
0.116144
0.116144
0.116144
0.116144
0.116144
0.116144
0.116144
0.116144
0.116144
0.116144
0.116144
0.116144
0.116144
0.116144
0.116144
0.116144
0.116144
0.116144
0.116144
0.116144
0.116144
0.116144
0.116144
0.116144
0.116144
0.116144
0.116144
0.116144
0.116144
0.116144
0.116144
0.116144
0.116144
0.116144
0.116144
0.116144
0.116144
0.116144
0.116144
0.116144
0.116144
0.116144
0.116144
0.116144
0.116144
0.116144
0.116144
0.116144
0.116144
0.116144
0.116144
0.116144
0.116144
0.116144
0.116144
0.116144
0.116144
0.116144
0.116144
0.116144
0.116144
0.116144
0.116144
0.116144
0.116144
0.116144
0.116144
0.116144
0.116144
0.116144
0.116144
0.116144
0.116144
0.116144
0.116144
0.116144
0.116144
0.116144
0.116144
0.116144
0.116144
0.116144
0.116144
0.116144
0.116144
0.116144
0.116144
0.116144
0.116144
0.116144
0.116144
0.116144
0.116144
0.116144
0.116144
0.116144
0.116144
0.116144
0.116144
0.116144
0.116144
0.116144
0.116144
0.116144
0.116144
0.116144
0.116144
0.116144
0.116144
0.116144
0.116144
0.116144
0.116144
0.116144
0.116144
0.116144
0.116144
0.116144
0.116144
0.116144
0.116144
0.116144
0.116144
0.116144
0.116144
0.116144
0.116144
0.116144
0.116144
0.116144
0.116144
0.116144
0.116144
0.116144
0.116144
0.116144
0.116144
0.116144
0.116144
0.116144
0.116144
0.116144
0.116144
0.116144
0.116144
0.116144
0.116144
0.116144
0.116144
0.116144
0.116144
0.116144
0.116144
0.116144
0.116144
0.116144
0.116144
0.116144
0.116144
0.116144
0.116144
0.116144
0.116144
0.116144
0.116144
0.116144
0.116144
0.116144
0.116144
0.116144
0.116144
0.116144
0.116144
0.116144
0.116144
0.116144
0.116144
0.116144
0.116144
0.116144
0.116144
0.116144
0.116144
0.116144
0.116144
0.116144
0.116144
0.116144
0.116144
0.116144
0.116144
0.116144
0.116144
0.116144
0.116144
0.116144
0.116144
0.116144
0.116144
0.116144
0.116144
0.116144
0.116144
0.116144
0.116144
0.116144
0.116144
0.116144
0.116144
0.116144
0.116144
0.116144
0.116144
0.116144
0.116144
0.116144
0.116144
0.116144
0.116144
0.116144
0.116144
0.116144
0.116144
0.116144
0.116144
0.116144
0.116144
0.116144
0.116144
0.116144
0.116144
0.116144
0.116144
0.116144
0.116144
0.116144
0.116144
0.116144
0.116144
0.116144
0.116144
0.116144
0.116144
0.116144
0.116144
0.116144
0.116144
0.116144
0.116144
0.116144
0.116144
0.116144
0.116144
0.116144
0.116144
0.116144
0.116144
0.116144
0.116144
0.116144
0.116144
0.116144
0.116144
0.116144
0.116144
0.116144
0.116144
0.116144
0.116144
0.116144
0.116144
0.116144
0.116144
0.116144
0.116144
0.116144
0.116144
0.116144
0.116144
0.116144
0.116144
0.116144
0.116144
0.116144
0.116144
0.116144
0.116144
0.116144
0.116144
0.116144
0.116144
0.116144
0.116144
0.116144
0.116144
0.116144
0.116144
0.116144
0.116144
0.116144
0.171936
0.147772
0.133225
0.124608
0.119956
0.117729
0.116765
0.116376
0.116227
0.116173
0.116154
0.116147
0.116145
0.116144
0.116144
0.116144
0.116144
0.116144
0.116144
0.116144
0.116144
0.116144
0.116144
0.116144
0.116144
0.116144
0.116144
0.116144
0.116144
0.116144
0.116144
0.116144
0.116144
0.116144
0.116144
0.116144
0.116144
0.116144
0.116144
0.116144
0.116144
0.116144
0.116144
0.116144
0.116144
0.116144
0.116144
0.116144
0.116144
0.116144
0.19166
0.169296
0.15062
0.136196
0.12645
0.120858
0.118104
0.116903
0.116422
0.116241
0.116177
0.116155
0.116147
0.116145
0.116144
0.116144
0.116144
0.116144
0.116144
0.116144
0.116144
0.116144
0.116144
0.116144
0.116144
0.116144
0.116144
0.116144
0.116144
0.116144
0.116144
0.116144
0.116144
0.116144
0.116144
0.116144
0.116144
0.116144
0.116144
0.116144
0.116144
0.116144
0.116144
0.116144
0.116144
0.116144
0.116144
0.116144
0.116144
0.116144
0.199597
0.182927
0.165702
0.14932
0.135702
0.126224
0.120729
0.118027
0.11686
0.116401
0.116232
0.116173
0.116153
0.116147
0.116145
0.116144
0.116144
0.116144
0.116144
0.116144
0.116144
0.116144
0.116144
0.116144
0.116144
0.116144
0.116144
0.116144
0.116144
0.116144
0.116144
0.116144
0.116144
0.116144
0.116144
0.116144
0.116144
0.116144
0.116144
0.116144
0.116144
0.116144
0.116144
0.116144
0.116144
0.116144
0.116144
0.116144
0.116144
0.116144
0.202061
0.190185
0.176104
0.160616
0.14546
0.133004
0.124569
0.119852
0.11762
0.116689
0.116334
0.116207
0.116164
0.11615
0.116146
0.116145
0.116144
0.116144
0.116144
0.116144
0.116144
0.116144
0.116144
0.116144
0.116144
0.116144
0.116144
0.116144
0.116144
0.116144
0.116144
0.116144
0.116144
0.116144
0.116144
0.116144
0.116144
0.116144
0.116144
0.116144
0.116144
0.116144
0.116144
0.116144
0.116144
0.116144
0.116144
0.116144
0.116144
0.116144
0.202459
0.193829
0.182597
0.168986
0.153986
0.139933
0.129085
0.122248
0.118694
0.117117
0.116491
0.116262
0.116182
0.116156
0.116148
0.116145
0.116144
0.116144
0.116144
0.116144
0.116144
0.116144
0.116144
0.116144
0.116144
0.116144
0.116144
0.116144
0.116144
0.116144
0.116144
0.116144
0.116144
0.116144
0.116144
0.116144
0.116144
0.116144
0.116144
0.116144
0.116144
0.116144
0.116144
0.116144
0.116144
0.116144
0.116144
0.116144
0.116144
0.116144
0.202417
0.195877
0.186692
0.174859
0.160711
0.146113
0.133625
0.124922
0.11999
0.117658
0.116696
0.116334
0.116206
0.116164
0.11615
0.116146
0.116145
0.116144
0.116144
0.116144
0.116144
0.116144
0.116144
0.116144
0.116144
0.116144
0.116144
0.116144
0.116144
0.116144
0.116144
0.116144
0.116144
0.116144
0.116144
0.116144
0.116144
0.116144
0.116144
0.116144
0.116144
0.116144
0.116144
0.116144
0.116144
0.116144
0.116144
0.116144
0.116144
0.116144
0.202521
0.197437
0.189545
0.179045
0.165817
0.151218
0.137742
0.127576
0.121372
0.118265
0.116932
0.116419
0.116236
0.116173
0.116153
0.116147
0.116145
0.116144
0.116144
0.116144
0.116144
0.116144
0.116144
0.116144
0.116144
0.116144
0.116144
0.116144
0.116144
0.116144
0.116144
0.116144
0.116144
0.116144
0.116144
0.116144
0.116144
0.116144
0.116144
0.116144
0.116144
0.116144
0.116144
0.116144
0.116144
0.116144
0.116144
0.116144
0.116144
0.116144
0.202954
0.198882
0.191784
0.182187
0.169706
0.155296
0.141255
0.130008
0.122722
0.118886
0.117183
0.116512
0.116268
0.116184
0.116156
0.116148
0.116145
0.116144
0.116144
0.116144
0.116144
0.116144
0.116144
0.116144
0.116144
0.116144
0.116144
0.116144
0.116144
0.116144
0.116144
0.116144
0.116144
0.116144
0.116144
0.116144
0.116144
0.116144
0.116144
0.116144
0.116144
0.116144
0.116144
0.116144
0.116144
0.116144
0.116144
0.116144
0.116144
0.116144
0.203648
0.200225
0.193734
0.184672
0.172733
0.158536
0.144166
0.132136
0.123969
0.119485
0.117431
0.116605
0.116301
0.116195
0.11616
0.116149
0.116145
0.116144
0.116144
0.116144
0.116144
0.116144
0.116144
0.116144
0.116144
0.116144
0.116144
0.116144
0.116144
0.116144
0.116144
0.116144
0.116144
0.116144
0.116144
0.116144
0.116144
0.116144
0.116144
0.116144
0.116144
0.116144
0.116144
0.116144
0.116144
0.116144
0.116144
0.116144
0.116144
0.116144
0.20446
0.201448
0.195454
0.186701
0.175147
0.161136
0.146567
0.133963
0.125088
0.120043
0.117669
0.116697
0.116334
0.116206
0.116164
0.11615
0.116146
0.116145
0.116144
0.116144
0.116144
0.116144
0.116144
0.116144
0.116144
0.116144
0.116144
0.116144
0.116144
0.116144
0.116144
0.116144
0.116144
0.116144
0.116144
0.116144
0.116144
0.116144
0.116144
0.116144
0.116144
0.116144
0.116144
0.116144
0.116144
0.116144
0.116144
0.116144
0.116144
0.116144
0.205261
0.202517
0.196931
0.188378
0.177111
0.163264
0.148572
0.135539
0.12609
0.12056
0.117896
0.116786
0.116366
0.116218
0.116167
0.116151
0.116146